  -4.500000        1.0641349E-17
  -4.373208        1.0641343E-17
  -4.246415        1.0641332E-17
  -4.119622        1.0641318E-17
  -3.992829        1.0641305E-17
  -3.866037        1.0641293E-17
  -3.739244        1.0641283E-17
  -3.612452        1.0641277E-17
  -3.485659        1.0641272E-17
  -3.358866        1.0641268E-17
  -3.232074        1.0641264E-17
  -3.105281        1.0641258E-17
  -2.978488        1.0641249E-17
  -2.851696        1.0641239E-17
  -2.724903        1.0641228E-17
  -2.598110        1.0641216E-17
  -2.471318        1.0641205E-17
  -2.344525        1.0641196E-17
  -2.217732        1.0641188E-17
  -2.090940        1.0641181E-17
  -1.964147        1.0641172E-17
  -1.837354        1.0641162E-17
  -1.710562        1.0641150E-17
  -1.583769        1.0641137E-17
  -1.456976        1.0641124E-17
  -1.330184        1.0641113E-17
  -1.203391        1.0641105E-17
  -1.076598        1.0641101E-17
 -0.9498057        1.0641101E-17
 -0.8230131        1.0641105E-17
 -0.6962205        1.0641110E-17
 -0.5694278        1.0641117E-17
 -0.4426351        1.0641124E-17
 -0.3158425        1.0641132E-17
 -0.1890498        1.0641138E-17
 -6.2257171E-02    1.0641133E-17
  6.4535484E-02    1.0641105E-17
  0.1913281        1.0641033E-17
  0.3181208        1.0640896E-17
  0.4449134        1.0640681E-17
  0.5717061        1.0640404E-17
  0.6984987        1.0640125E-17
  0.8252914        1.0639961E-17
  0.9520841        1.0640080E-17
   1.078877        1.0640666E-17
   1.205669        1.0641842E-17
   1.332462        1.0643570E-17
   1.459255        1.0645528E-17
   1.586047        1.0647049E-17
   1.712840        1.0647122E-17
   1.839633        1.0644565E-17
   1.966425        1.0638372E-17
   2.093218        1.0628216E-17
   2.220011        1.0615025E-17
   2.346803        1.0601435E-17
   2.473596        1.0591914E-17
   2.600389        1.0592318E-17
   2.727181        1.0608756E-17
   2.853974        1.0645791E-17
   2.980767        1.0704288E-17
   3.107559        1.0779450E-17
   3.234352        1.0859786E-17
   3.361145        1.0927705E-17
   3.487937        1.0962276E-17
   3.614730        1.0944093E-17
   3.741522        1.0861558E-17
   3.868315        1.0717203E-17
   3.995108        1.0532169E-17
   4.121901        1.0346978E-17
   4.248693        1.0217304E-17
   4.375485        1.0204620E-17
   4.502278        1.0363095E-17
   4.629071        1.0725542E-17
   4.755864        1.1292008E-17
   4.882656        1.2024423E-17
   5.009449        1.2849303E-17
   5.136241        1.3668255E-17
   5.263034        1.4373517E-17
   5.389827        1.4863986E-17
   5.516620        1.5057043E-17
   5.643412        1.4893279E-17
   5.770205        1.4334693E-17
   5.896997        1.3360792E-17
   6.023790        1.1969521E-17
   6.150583        1.0189364E-17
   6.277375        8.1044700E-18
   6.404168        5.8868902E-18
   6.530961        3.8214607E-18
   6.657753        2.3031988E-18
   6.784546        1.7881054E-18
   6.911339        2.6882663E-18
   7.038131        5.2204117E-18
   7.164924        9.2392733E-18
   7.291717        1.4105790E-17
   7.418509        1.8647040E-17
   7.545302        2.1253455E-17
   7.672095        2.0127907E-17
   7.798887        1.3656559E-17
   7.925680        8.2481503E-19
   8.052472       -1.8430686E-17
   8.179265       -4.3046638E-17
   8.306058       -7.0914035E-17
   8.432851       -9.9229460E-17
   8.559643       -1.2504701E-16
   8.686436       -1.4588478E-16
   8.813229       -1.6019668E-16
   8.940022       -1.6753213E-16
   9.066813       -1.6827678E-16
   9.193606       -1.6298724E-16
   9.320399       -1.5146966E-16
   9.447192       -1.3186970E-16
   9.573984       -1.0010001E-16
   9.700777       -4.9907138E-17
   9.827570        2.6232278E-17
   9.954362        1.3537691E-16
   10.08115        2.8175148E-16
   10.20795        4.6414441E-16
   10.33474        6.7361391E-16
   10.46153        8.9209521E-16
   10.58833        1.0924480E-15
   10.71512        1.2403308E-15
   10.84191        1.2980470E-15
   10.96870        1.2302151E-15
   11.09550        1.0107700E-15
   11.22229        6.3047500E-16
   11.34908        1.0381720E-16
   11.47587       -5.2604357E-16
   11.60267       -1.1856672E-15
   11.72946       -1.7742988E-15
   11.85625       -2.1722276E-15
   11.98304       -2.2546675E-15
   12.10984       -1.9103786E-15
   12.23663       -1.0632369E-15
   12.36342        3.0600119E-16
   12.49022        2.1411519E-15
   12.61701        4.2989057E-15
   12.74380        6.5472051E-15
   12.87059        8.5759096E-15
   12.99739        1.0020362E-14
   13.12418        1.0496644E-14
   13.25097        9.6454005E-15
   13.37776        7.1795936E-15
   13.50456        2.9306614E-15
   13.63135       -3.1125431E-15
   13.75814       -1.0776870E-14
   13.88493       -1.9693467E-14
   14.01173       -2.9303349E-14
   14.13852       -3.8879541E-14
   14.26531       -4.7563732E-14
   14.39211       -5.4414437E-14
   14.51890       -5.8463136E-14
   14.64569       -5.8775291E-14
   14.77248       -5.4513790E-14
   14.89928       -4.5002874E-14
   15.02607       -2.9791294E-14
   15.15286       -8.7129595E-15
   15.27965        1.8057533E-14
   15.40645        4.9958616E-14
   15.53324        8.6010599E-14
   15.66003        1.2480697E-13
   15.78682        1.6453555E-13
   15.91362        2.0303624E-13
   16.04041        2.3789884E-13
   16.16720        2.6659949E-13
   16.29399        2.8666883E-13
   16.42079        2.9587742E-13
   16.54758        2.9241925E-13
   16.67437        2.7506922E-13
   16.80116        2.4328906E-13
   16.92796        1.9725932E-13
   17.05475        1.3782084E-13
   17.18154        6.6318763E-14
   17.30834       -1.5644661E-14
   17.43513       -1.0652883E-13
   17.56192       -2.0521066E-13
   17.68871       -3.1133169E-13
   17.81551       -4.2558090E-13
   17.94230       -5.4985357E-13
   18.06909       -6.8722746E-13
   18.19588       -8.4170474E-13
   18.32268       -1.0176805E-12
   18.44947       -1.2191192E-12
   18.57626       -1.4484423E-12
   18.70305       -1.7051651E-12
   18.82985       -1.9843480E-12
   18.95664       -2.2749732E-12
   19.08343       -2.5583895E-12
   19.21023       -2.8070105E-12
   19.33702       -2.9834820E-12
   19.46381       -3.0405561E-12
   19.59060       -2.9219183E-12
   19.71740       -2.5641915E-12
   19.84419       -1.9003007E-12
   19.97098       -8.6430353E-13
   20.09777        6.0232570E-13
   20.22457        2.5431048E-12
   20.35136        4.9779608E-12
   20.47815        7.8941454E-12
   20.60494        1.1237303E-11
   20.73174        1.4903497E-11
   20.85853        1.8733098E-11
   20.98532        2.2507473E-11
   21.11212        2.5949432E-11
   21.23891        2.8728200E-11
   21.36570        3.0469623E-11
   21.49249        3.0771930E-11
   21.61929        2.9227166E-11
   21.74608        2.5447941E-11
   21.87287        1.9098797E-11
   21.99966        9.9309901E-12
   22.12646       -2.1809251E-12
   22.25325       -1.7202746E-11
   22.38004       -3.4906956E-11
   22.50683       -5.4844459E-11
   22.63363       -7.6324620E-11
   22.76042       -9.8406575E-11
   22.88721       -1.1990464E-10
   23.01401       -1.3941019E-10
   23.14080       -1.5533194E-10
   23.26759       -1.6595554E-10
   23.39438       -1.6952263E-10
   23.52118       -1.6432776E-10
   23.64797       -1.4883093E-10
   23.77476       -1.2178134E-10
   23.90155       -8.2346713E-11
   24.02835       -3.0241899E-11
   24.15514        3.4152004E-11
   24.28193        1.0968601E-10
   24.40872        1.9436859E-10
   24.53552        2.8532682E-10
   24.66231        3.7881143E-10
   24.78910        4.7025300E-10
   24.91590        5.5437382E-10
   25.04269        6.2535832E-10
   25.16948        6.7708111E-10
   25.29627        7.0338940E-10
   25.42307        6.9843098E-10
   25.54986        6.5701750E-10
   25.67665        5.7500799E-10
   25.80344        4.4969348E-10
   25.93024        2.8016331E-10
   26.05703        6.7629888E-11
   26.18382       -1.8431133E-10
   26.31061       -4.6950893E-10
   26.43741       -7.7919105E-10
   26.56420       -1.1020269E-09
   26.69099       -1.4243278E-09
   26.81779       -1.7303953E-09
   26.94458       -2.0030173E-09
   27.07137       -2.2241067E-09
   27.19816       -2.3754669E-09
   27.32495       -2.4396620E-09
   27.45175       -2.4009628E-09
   27.57854       -2.2463269E-09
   27.70533       -1.9663753E-09
   27.83213       -1.5563112E-09
   27.95892       -1.0167324E-09
   28.08571       -3.5428663E-10
   28.21250        4.1788303E-10
   28.33930        1.2799458E-09
   28.46609        2.2054825E-09
   28.59288        3.1619050E-09
   28.71968        4.1112114E-09
   28.84647        5.0110769E-09
   28.97326        5.8162679E-09
   29.10005        6.4803438E-09
   29.22684        6.9575985E-09
   29.35364        7.2051796E-09
   29.48043        7.1852946E-09
   29.60722        6.8674217E-09
   29.73402        6.2304113E-09
   29.86081        5.2643809E-09
   29.98760        3.9722869E-09
   30.11439        2.3710756E-09
   30.24119        4.9231996E-10
   30.36798       -1.6177311E-09
   30.49477       -3.8987475E-09
   30.62156       -6.2775833E-09
   30.74836       -8.6702094E-09
   30.87515       -1.0984280E-08
   31.00194       -1.3122271E-08
   31.12873       -1.4985078E-08
   31.25553       -1.6475965E-08
   31.38232       -1.7504696E-08
   31.50911       -1.7991679E-08
   31.63591       -1.7871940E-08
   31.76270       -1.7098749E-08
   31.88949       -1.5646688E-08
   32.01628       -1.3514034E-08
   32.14308       -1.0724283E-08
   32.26987       -7.3267210E-09
   32.39666       -3.3959764E-09
   32.52345        9.6948116E-10
   32.65025        5.6498557E-09
   32.77704        1.0507491E-08
   32.90383        1.5391157E-08
   33.03062        2.0141009E-08
   33.15742        2.4594009E-08
   33.28421        2.8589600E-08
   33.41100        3.1975386E-08
   33.53780        3.4612601E-08
   33.66459        3.6381127E-08
   33.79138        3.7183849E-08
   33.91817        3.6950212E-08
   34.04497        3.5638809E-08
   34.17176        3.3238930E-08
   34.29855        2.9771071E-08
   34.42534        2.5286392E-08
   34.55214        1.9865181E-08
   34.67893        1.3614488E-08
   34.80572        6.6650263E-09
   34.93251       -8.3246332E-10
   35.05931       -8.7112104E-09
   35.18610       -1.6792608E-08
   35.31289       -2.4890406E-08
   35.43969       -3.2814800E-08
   35.56648       -4.0376264E-08
   35.69327       -4.7389111E-08
   35.82006       -5.3674686E-08
   35.94686       -5.9064270E-08
   36.07365       -6.3401700E-08
   36.20044       -6.6545795E-08
   36.32723       -6.8372728E-08
   36.45403       -6.8778348E-08
   36.58082       -6.7680602E-08
   36.70761       -6.5022178E-08
   36.83440       -6.0773253E-08
   36.96120       -5.4934503E-08
   37.08799       -4.7540137E-08
   37.21478       -3.8660939E-08
   37.34158       -2.8407074E-08
   37.46837       -1.6930388E-08
   37.59516       -4.4259867E-09
   37.72195        8.8672936E-09
   37.84875        2.2667789E-08
   37.97554        3.6653603E-08
   38.10233        5.0467133E-08
   38.22912        6.3721728E-08
   38.35592        7.6010537E-08
   38.48271        8.6917545E-08
   38.60950        9.6030675E-08
   38.73629        1.0295658E-07
   38.86309        1.0733682E-07
   38.98988        1.0886475E-07
   39.11667        1.0730257E-07
   39.24347        1.0249759E-07
   39.37026        9.4397180E-08
   39.49705        8.3061146E-08
   39.62384        6.8671085E-08
   39.75064        5.1535686E-08
   39.87743        3.2091339E-08
   40.00422        1.0897639E-08
   40.13101       -1.1372679E-08
   40.25780       -3.3949412E-08
   40.38460       -5.5986092E-08
   40.51139       -7.6586261E-08
   40.63818       -9.4834220E-08
   40.76498       -1.0982934E-07
   40.89177       -1.2072276E-07
   41.01856       -1.2675520E-07
   41.14536       -1.2729438E-07
   41.27215       -1.2187060E-07
   41.39894       -1.1020861E-07
   41.52573       -9.2254822E-08
   41.65253       -6.8197835E-08
   41.77932       -3.8481513E-08
   41.90611       -3.8095838E-09
   42.03290        3.4859045E-08
   42.15969        7.6324234E-08
   42.28649        1.1916794E-07
   42.41328        1.6178626E-07
   42.54007        2.0242939E-07
   42.66687        2.3924812E-07
   42.79366        2.7034525E-07
   42.92045        2.9383020E-07
   43.04725        3.0787444E-07
   43.17404        3.1076598E-07
   43.30083        3.0096024E-07
   43.42762        2.7712520E-07
   43.55442        2.3817945E-07
   43.68121        1.8332051E-07
   43.80800        1.1204278E-07
   43.93479        2.4143834E-08
   44.06158       -8.0281289E-08
   44.18838       -2.0085787E-07
   44.31517       -3.3696057E-07
   44.44196       -4.8775308E-07
   44.56876       -6.5223594E-07
   44.69555       -8.2930188E-07
   44.82234       -1.0177943E-06
   44.94913       -1.2165681E-06
   45.07593       -1.4245495E-06
   45.20272       -1.6407903E-06
   45.32951       -1.8645160E-06
   45.45631       -2.0951643E-06
   45.58310       -2.3324103E-06
   45.70989       -2.5761790E-06
   45.83668       -2.8266406E-06
   45.96347       -3.0841920E-06
   46.09027       -3.3494189E-06
   46.21706       -3.6230442E-06
   46.34385       -3.9058632E-06
   46.47065       -4.1986636E-06
   46.59744       -4.5021388E-06
   46.72423       -4.8167931E-06
   46.85102       -5.1428465E-06
   46.97782       -5.4801430E-06
   47.10461       -5.8280611E-06
   47.23140       -6.1854394E-06
   47.35820       -6.5505155E-06
   47.48499       -6.9208868E-06
   47.61178       -7.2934904E-06
   47.73857       -7.6646093E-06
   47.86536       -8.0299078E-06
   47.99216       -8.3844943E-06
   48.11895       -8.7230055E-06
   48.24574       -9.0397307E-06
   48.37254       -9.3287435E-06
   48.49933       -9.5840669E-06
   48.62612       -9.7998427E-06
   48.75291       -9.9705194E-06
   48.87971       -1.0091040E-05
   49.00650       -1.0157026E-05
   49.13329       -1.0164948E-05
   49.26009       -1.0112291E-05
   49.38688       -9.9976778E-06
   49.51367       -9.8209830E-06
   49.64046       -9.5833921E-06
   49.76725       -9.2874361E-06
   49.89405       -8.9369787E-06
   50.02084       -8.5371594E-06
   50.14763       -8.0942982E-06
   50.27443       -7.6157571E-06
   50.40122       -7.1097643E-06
   50.52801       -6.5852073E-06
   50.65480       -6.0513999E-06
   50.78160       -5.5178343E-06
   50.90839       -4.9939181E-06
   51.03518       -4.4887156E-06
   51.16198       -4.0106925E-06
   51.28877       -3.5674809E-06
   51.41556       -3.1656684E-06
   51.54235       -2.8106224E-06
   51.66914       -2.5063480E-06
   51.79594       -2.2553970E-06
   51.92273       -2.0588179E-06
   52.04952       -1.9161585E-06
   52.17632       -1.8255151E-06
   52.30311       -1.7836264E-06
   52.42990       -1.7860128E-06
   52.55669       -1.8271463E-06
   52.68349       -1.9006603E-06
   52.81028       -1.9995693E-06
   52.93707       -2.1165131E-06
   53.06387       -2.2439992E-06
   53.19066       -2.3746470E-06
   53.31745       -2.5014128E-06
   53.44424       -2.6178036E-06
   53.57103       -2.7180567E-06
   53.69783       -2.7972951E-06
   53.82462       -2.8516422E-06
   53.95141       -2.8783011E-06
   54.07821       -2.8755967E-06
   54.20500       -2.8429754E-06
   54.33179       -2.7809758E-06
   54.45858       -2.6911655E-06
   54.58538       -2.5760471E-06
   54.71217       -2.4389456E-06
   54.83896       -2.2838785E-06
   54.96576       -2.1154131E-06
   55.09255       -1.9385177E-06
   55.21934       -1.7584180E-06
   55.34613       -1.5804491E-06
   55.47292       -1.4099259E-06
   55.59972       -1.2520153E-06
   55.72651       -1.1116298E-06
   55.85330       -9.9332487E-07
   55.98009       -9.0122194E-07
   56.10689       -8.3893184E-07
   56.23368       -8.0950076E-07
   56.36047       -8.1535944E-07
   56.48727       -8.5828026E-07
   56.61406       -9.3934085E-07
   56.74085       -1.0588922E-06
   56.86765       -1.2165269E-06
   56.99444       -1.4110541E-06
   57.12123       -1.6404713E-06
   57.24802       -1.9019400E-06
   57.37481       -2.1917751E-06
   57.50161       -2.5054296E-06
   57.62840       -2.8374989E-06
   57.75519       -3.1817358E-06
   57.88198       -3.5310859E-06
   58.00878       -3.8777421E-06
   58.13557       -4.2132260E-06
   58.26236       -4.5284969E-06
   58.38916       -4.8140882E-06
   58.51595       -5.0602825E-06
   58.64274       -5.2573023E-06
   58.76954       -5.3955391E-06
   58.89633       -5.4658026E-06
   59.02312       -5.4595848E-06
   59.14991       -5.3693375E-06
   59.27670       -5.1887496E-06
   59.40350       -4.9130194E-06
   59.53029       -4.5391080E-06
   59.65708       -4.0659693E-06
   59.78387       -3.4947409E-06
   59.91067       -2.8288819E-06
   60.03746       -2.0742621E-06
   60.16425       -1.2391838E-06
   60.29105       -3.3433645E-07
   60.41784        6.2733312E-07
   60.54463        1.6308046E-06
   60.67142        2.6592670E-06
   60.79822        3.6944559E-06
   60.92501        4.7170552E-06
   61.05180        5.7071552E-06
   61.17859        6.6447483E-06
   61.30539        7.5102671E-06
   61.43218        8.2851157E-06
   61.55897        8.9522091E-06
   61.68576        9.4964971E-06
   61.81256        9.9054396E-06
   61.93935        1.0169424E-05
   62.06614        1.0282127E-05
   62.19294        1.0240763E-05
   62.31973        1.0046275E-05
   62.44652        9.7033771E-06
   62.57331        9.2205109E-06
   62.70011        8.6096843E-06
   62.82690        7.8861895E-06
   62.95369        7.0682217E-06
   63.08048        6.1764035E-06
   63.20728        5.2332152E-06
   63.33407        4.2623697E-06
   63.46086        3.2881196E-06
   63.58765        2.3345649E-06
   63.71445        1.4249281E-06
   63.84124        5.8086596E-07
   63.96803       -1.7818017E-07
   64.09483       -8.3557086E-07
   64.22162       -1.3779737E-06
   64.34841       -1.7957594E-06
   64.47520       -2.0832840E-06
   64.60200       -2.2390443E-06
   64.72879       -2.2656975E-06
   64.85558       -2.1699445E-06
   64.98238       -1.9622832E-06
   65.10917       -1.6566336E-06
   65.23596       -1.2698542E-06
   65.36275       -8.2116298E-07
   65.48955       -3.3148388E-07
   65.61633        1.7725904E-07
   65.74313        6.8286977E-07
   65.86992        1.1636097E-06
   65.99671        1.5989008E-06
   66.12350        1.9699762E-06
   66.25030        2.2604556E-06
   66.37709        2.4568276E-06
   66.50388        2.5488152E-06
   66.63068        2.5296340E-06
   66.75747        2.3960927E-06
   66.88426        2.1485857E-06
   67.01105        1.7909475E-06
   67.13785        1.3301814E-06
   67.26464        7.7609423E-07
   67.39143        1.4082443E-07
   67.51823       -5.6166857E-07
   67.64502       -1.3161999E-06
   67.77181       -2.1069411E-06
   67.89861       -2.9180019E-06
   68.02540       -3.7340039E-06
   68.15219       -4.5405714E-06
   68.27898       -5.3247722E-06
   68.40578       -6.0754610E-06
   68.53257       -6.7835144E-06
   68.65936       -7.4419886E-06
   68.78616       -8.0461296E-06
   68.91295       -8.5932879E-06
   69.03974       -9.0827598E-06
   69.16653       -9.5155201E-06
   69.29333       -9.8938863E-06
   69.42011       -1.0221128E-05
   69.54691       -1.0501062E-05
   69.67370       -1.0737624E-05
   69.80049       -1.0934444E-05
   69.92728       -1.1094500E-05
   70.05408       -1.1219788E-05
   70.18087       -1.1311057E-05
   70.30766       -1.1367670E-05
   70.43446       -1.1387491E-05
   70.56125       -1.1366928E-05
   70.68804       -1.1301010E-05
   70.81483       -1.1183601E-05
   70.94163       -1.1007657E-05
   71.06842       -1.0765574E-05
   71.19521       -1.0449577E-05
   71.32201       -1.0052143E-05
   71.44880       -9.5664509E-06
   71.57559       -8.9868081E-06
   71.70238       -8.3090663E-06
   71.82918       -7.5309849E-06
   71.95597       -6.6525649E-06
   72.08276       -5.6762733E-06
   72.20956       -4.6072178E-06
   72.33635       -3.4532216E-06
   72.46314       -2.2248119E-06
   72.58994       -9.3511608E-07
   72.71673        4.0032793E-07
   72.84352        1.7638380E-06
   72.97031        3.1359305E-06
   73.09711        4.4957210E-06
   73.22389        5.8213755E-06
   73.35069        7.0905853E-06
   73.47748        8.2810702E-06
   73.60427        9.3710787E-06
   73.73106        1.0339876E-05
   73.85786        1.1168222E-05
   73.98465        1.1838786E-05
   74.11144        1.2336547E-05
   74.23824        1.2649121E-05
   74.36503        1.2767040E-05
   74.49182        1.2683963E-05
   74.61861        1.2396832E-05
   74.74541        1.1905962E-05
   74.87220        1.1215072E-05
   74.99899        1.0331245E-05
   75.12579        9.2648643E-06
   75.25258        8.0294758E-06
   75.37937        6.6416092E-06
   75.50616        5.1205698E-06
   75.63296        3.4881959E-06
   75.75975        1.7685766E-06
   75.88654       -1.2252823E-08
   76.01334       -1.8266243E-06
   76.14013       -3.6455970E-06
   76.26692       -5.4393063E-06
   76.39371       -7.1773475E-06
   76.52051       -8.8291872E-06
   76.64730       -1.0364546E-05
   76.77409       -1.1753851E-05
   76.90089       -1.2968650E-05
   77.02767       -1.3982063E-05
   77.15446       -1.4769198E-05
   77.28126       -1.5307623E-05
   77.40805       -1.5577776E-05
   77.53484       -1.5563352E-05
   77.66164       -1.5251695E-05
   77.78843       -1.4634151E-05
   77.91522       -1.3706315E-05
   78.04202       -1.2468299E-05
   78.16881       -1.0924834E-05
   78.29560       -9.0854128E-06
   78.42239       -6.9642292E-06
   78.54919       -4.5801035E-06
   78.67598       -1.9562863E-06
   78.80277        8.7984421E-07
   78.92957        3.8971621E-06
   79.05636        7.0612546E-06
   79.18315        1.0335017E-05
   79.30994        1.3679220E-05
   79.43674        1.7053233E-05
   79.56353        2.0415688E-05
   79.69032        2.3725224E-05
   79.81712        2.6941230E-05
   79.94391        3.0024525E-05
   80.07070        3.2938042E-05
   80.19749        3.5647463E-05
   80.32429        3.8121736E-05
   80.45108        4.0333569E-05
   80.57787        4.2259784E-05
   80.70466        4.3881621E-05
   80.83145        4.5184879E-05
   80.95824        4.6160028E-05
   81.08504        4.6802139E-05
   81.21183        4.7110792E-05
   81.33862        4.7089874E-05
   81.46542        4.6747307E-05
   81.59221        4.6094716E-05
   81.71900        4.5147059E-05
   81.84579        4.3922224E-05
   81.97259        4.2440624E-05
   82.09938        4.0724772E-05
   82.22617        3.8798833E-05
   82.35297        3.6688267E-05
   82.47976        3.4419416E-05
   82.60655        3.2019168E-05
   82.73335        2.9514616E-05
   82.86014        2.6932757E-05
   82.98693        2.4300236E-05
   83.11372        2.1643093E-05
   83.24052        1.8986520E-05
   83.36731        1.6354652E-05
   83.49410        1.3770366E-05
   83.62090        1.1255066E-05
   83.74769        8.8284833E-06
   83.87448        6.5085028E-06
   84.00127        4.3109044E-06
   84.12807        2.2492252E-06
   84.25486        3.3452073E-07
   84.38165       -1.4247674E-06
   84.50844       -3.0229739E-06
   84.63523       -4.4573435E-06
   84.76202       -5.7281218E-06
   84.88882       -6.8386080E-06
   85.01561       -7.7951117E-06
   85.14240       -8.6068667E-06
   85.26920       -9.2859400E-06
   85.39599       -9.8469409E-06
   85.52278       -1.0306770E-05
   85.64957       -1.0684249E-05
   85.77637       -1.0999699E-05
   85.90316       -1.1274421E-05
   86.02995       -1.1530195E-05
   86.15675       -1.1788702E-05
   86.28354       -1.2070945E-05
   86.41033       -1.2396657E-05
   86.53712       -1.2783766E-05
   86.66392       -1.3247864E-05
   86.79071       -1.3801777E-05
   86.91750       -1.4455173E-05
   87.04430       -1.5214304E-05
   87.17109       -1.6081791E-05
   87.29788       -1.7056573E-05
   87.42467       -1.8133995E-05
   87.55147       -1.9305968E-05
   87.67826       -2.0561210E-05
   87.80505       -2.1885739E-05
   87.93185       -2.3263285E-05
   88.05864       -2.4675883E-05
   88.18543       -2.6104521E-05
   88.31222       -2.7529801E-05
   88.43901       -2.8932645E-05
   88.56580       -3.0294914E-05
   88.69260       -3.1600106E-05
   88.81939       -3.2833912E-05
   88.94618       -3.3984710E-05
   89.07298       -3.5043970E-05
   89.19977       -3.6006521E-05
   89.32656       -3.6870722E-05
   89.45335       -3.7638478E-05
   89.58015       -3.8315109E-05
   89.70694       -3.8909140E-05
   89.83373       -3.9431910E-05
   89.96053       -3.9897084E-05
   90.08732       -4.0320087E-05
   90.21411       -4.0717485E-05
   90.34090       -4.1106232E-05
   90.46770       -4.1502990E-05
   90.59449       -4.1923431E-05
   90.72128       -4.2381522E-05
   90.84808       -4.2888925E-05
   90.97487       -4.3454464E-05
   91.10166       -4.4083707E-05
   91.22845       -4.4778626E-05
   91.35525       -4.5537436E-05
   91.48204       -4.6354580E-05
   91.60883       -4.7220794E-05
   91.73563       -4.8123391E-05
   91.86242       -4.9046630E-05
   91.98921       -4.9972212E-05
   92.11600       -5.0879858E-05
   92.24279       -5.1748015E-05
   92.36958       -5.2554555E-05
   92.49638       -5.3277512E-05
   92.62317       -5.3895827E-05
   92.74996       -5.4390028E-05
   92.87675       -5.4742875E-05
   93.00355       -5.4939901E-05
   93.13034       -5.4969867E-05
   93.25713       -5.4825065E-05
   93.38393       -5.4501561E-05
   93.51072       -5.3999178E-05
   93.63751       -5.3321452E-05
   93.76431       -5.2475403E-05
   93.89110       -5.1471234E-05
   94.01789       -5.0321843E-05
   94.14468       -4.9042323E-05
   94.27148       -4.7649402E-05
   94.39827       -4.6160803E-05
   94.52506       -4.4594646E-05
   94.65186       -4.2968830E-05
   94.77865       -4.1300467E-05
   94.90544       -3.9605395E-05
   95.03223       -3.7897757E-05
   95.15903       -3.6189656E-05
   95.28582       -3.4490946E-05
   95.41261       -3.2809094E-05
   95.53941       -3.1149160E-05
   95.66620       -2.9513843E-05
   95.79299       -2.7903643E-05
   95.91978       -2.6317091E-05
   96.04657       -2.4751018E-05
   96.17336       -2.3200862E-05
   96.30016       -2.1661006E-05
   96.42695       -2.0125110E-05
   96.55374       -1.8586410E-05
   96.68053       -1.7038006E-05
   96.80733       -1.5473099E-05
   96.93412       -1.3885172E-05
   97.06091       -1.2268151E-05
   97.18771       -1.0616483E-05
   97.31450       -8.9251917E-06
   97.44129       -7.1898789E-06
   97.56808       -5.4067391E-06
   97.69488       -3.5725127E-06
   97.82167       -1.6844589E-06
   97.94846        2.5964792E-07
   98.07526        2.2615152E-06
   98.20205        4.3222981E-06
   98.32884        6.4425230E-06
   98.45564        8.6219716E-06
   98.58243        1.0859524E-05
   98.70922        1.3152960E-05
   98.83601        1.5498732E-05
   98.96281        1.7891736E-05
   99.08960        2.0325049E-05
   99.21639        2.2789718E-05
   99.34319        2.5274563E-05
   99.46998        2.7766044E-05
   99.59677        3.0248186E-05
   99.72356        3.2702599E-05
   99.85035        3.5108595E-05
   99.97714        3.7443398E-05
   100.1039        3.9682476E-05
   100.2307        4.1799962E-05
   100.3575        4.3769192E-05
   100.4843        4.5563320E-05
   100.6111        4.7156031E-05
   100.7379        4.8522263E-05
   100.8647        4.9639017E-05
   100.9915        5.0486098E-05
   101.1183        5.1046900E-05
   101.2451        5.1309067E-05
   101.3719        5.1265110E-05
   101.4987        5.0912888E-05
   101.6255        5.0255949E-05
   101.7522        4.9303737E-05
   101.8790        4.8071615E-05
   102.0058        4.6580721E-05
   102.1326        4.4857621E-05
   102.2594        4.2933832E-05
   102.3862        4.0845167E-05
   102.5130        3.8630918E-05
   102.6398        3.6332931E-05
   102.7666        3.3994587E-05
   102.8934        3.1659740E-05
   103.0202        2.9371560E-05
   103.1470        2.7171449E-05
   103.2738        2.5097934E-05
   103.4006        2.3185679E-05
   103.5273        2.1464573E-05
   103.6541        1.9958950E-05
   103.7809        1.8686973E-05
   103.9077        1.7660172E-05
   104.0345        1.6883194E-05
   104.1613        1.6353704E-05
   104.2881        1.6062522E-05
   104.4149        1.5993914E-05
   104.5417        1.6126081E-05
   104.6685        1.6431826E-05
   104.7953        1.6879343E-05
   104.9221        1.7433147E-05
   105.0489        1.8055094E-05
   105.1756        1.8705468E-05
   105.3024        1.9344114E-05
   105.4292        1.9931547E-05
   105.5560        2.0430065E-05
   105.6828        2.0804786E-05
   105.8096        2.1024616E-05
   105.9364        2.1063093E-05
   106.0632        2.0899108E-05
   106.1900        2.0517486E-05
   106.3168        1.9909408E-05
   106.4436        1.9072655E-05
   106.5704        1.8011689E-05
   106.6972        1.6737557E-05
   106.8240        1.5267624E-05
   106.9507        1.3625167E-05
   107.0775        1.1838801E-05
   107.2043        9.9417948E-06
   107.3311        7.9712754E-06
   107.4579        5.9673453E-06
   107.5847        3.9721449E-06
   107.7115        2.0288667E-06
   107.8383        1.8076254E-07
   107.9651       -1.5298491E-06
   108.0919       -3.0625340E-06
   108.2187       -4.3796617E-06
   108.3455       -5.4472366E-06
   108.4723       -6.2356512E-06
   108.5990       -6.7203364E-06
   108.7258       -6.8822815E-06
   108.8526       -6.7084520E-06
   108.9794       -6.1920600E-06
   109.1062       -5.3327003E-06
   109.2330       -4.1363610E-06
   109.3598       -2.6152936E-06
   109.4866       -7.8775855E-07
   109.6134        1.3223452E-06
   109.7402        3.6859662E-06
   109.8670        6.2694871E-06
   109.9938        9.0353933E-06
   110.1206        1.1943016E-05
   110.2474        1.4949343E-05
   110.3741        1.8009830E-05
   110.5009        2.1079275E-05
   110.6277        2.4112649E-05