  -4.500000        3.3825504E-19
  -4.373208        3.3825238E-19
  -4.246415        3.3824609E-19
  -4.119622        3.3823627E-19
  -3.992829        3.3822500E-19
  -3.866037        3.3821153E-19
  -3.739244        3.3819830E-19
  -3.612452        3.3818519E-19
  -3.485659        3.3817323E-19
  -3.358866        3.3816299E-19
  -3.232074        3.3815433E-19
  -3.105281        3.3814681E-19
  -2.978488        3.3813993E-19
  -2.851696        3.3813342E-19
  -2.724903        3.3812559E-19
  -2.598110        3.3811592E-19
  -2.471318        3.3810281E-19
  -2.344525        3.3808536E-19
  -2.217732        3.3806210E-19
  -2.090940        3.3803235E-19
  -1.964147        3.3799587E-19
  -1.837354        3.3795335E-19
  -1.710562        3.3790517E-19
  -1.583769        3.3785212E-19
  -1.456976        3.3779701E-19
  -1.330184        3.3774144E-19
  -1.203391        3.3768733E-19
  -1.076598        3.3763685E-19
 -0.9498057        3.3759146E-19
 -0.8230131        3.3755098E-19
 -0.6962205        3.3751494E-19
 -0.5694278        3.3748413E-19
 -0.4426351        3.3745991E-19
 -0.3158425        3.3744544E-19
 -0.1890498        3.3744456E-19
 -6.2257171E-02    3.3746278E-19
  6.4535484E-02    3.3750264E-19
  0.1913281        3.3755840E-19
  0.3181208        3.3761273E-19
  0.4449134        3.3763003E-19
  0.5717061        3.3756333E-19
  0.6984987        3.3735894E-19
  0.8252914        3.3697981E-19
  0.9520841        3.3643030E-19
   1.078877        3.3578492E-19
   1.205669        3.3520802E-19
   1.332462        3.3495056E-19
   1.459255        3.3530689E-19
   1.586047        3.3653192E-19
   1.712840        3.3871779E-19
   1.839633        3.4165113E-19
   1.966425        3.4469593E-19
   2.093218        3.4675078E-19
   2.220011        3.4633768E-19
   2.346803        3.4184813E-19
   2.473596        3.3195795E-19
   2.600389        3.1613933E-19
   2.727181        2.9516924E-19
   2.853974        2.7147326E-19
   2.980767        2.4916032E-19
   3.107559        2.3361824E-19
   3.234352        2.3066172E-19
   3.361145        2.4531788E-19
   3.487937        2.8046587E-19
   3.614730        3.3561501E-19
   3.741522        4.0609455E-19
   3.868315        4.8286436E-19
   3.995108        5.5299842E-19
   4.121901        6.0077332E-19
   4.248693        6.0922007E-19
   4.375485        5.6204384E-19
   4.502278        4.4595096E-19
   4.629071        2.5356175E-19
   4.755864       -1.2891836E-20
   4.882656       -3.3715641E-19
   5.009449       -6.8449666E-19
   5.136241       -9.9867676E-19
   5.263034       -1.2026638E-18
   5.389827       -1.2056225E-18
   5.516620       -9.1814763E-19
   5.643412       -2.7583356E-19
   5.770205        7.3161545E-19
   5.896997        2.0318960E-18
   6.023790        3.4511394E-18
   6.150583        4.7141983E-18
   6.277375        5.4718242E-18
   6.404168        5.3570040E-18
   6.530961        4.0648032E-18
   6.657753        1.4413985E-18
   6.784546       -2.4387927E-18
   6.911339       -7.2312096E-18
   7.038131       -1.2333697E-17
   7.164924       -1.6961999E-17
   7.291717       -2.0281210E-17
   7.418509       -2.1569575E-17
   7.545302       -2.0378011E-17
   7.672095       -1.6643501E-17
   7.798887       -1.0720176E-17
   7.925680       -3.3084015E-18
   8.052472        4.7131345E-18
   8.179265        1.2519564E-17
   8.306058        1.9579301E-17
   8.432851        2.5829767E-17
   8.559643        3.1719263E-17
   8.686436        3.8063520E-17
   8.813229        4.5701530E-17
   8.940022        5.4985031E-17
   9.066813        6.5193016E-17
   9.193606        7.4017134E-17
   9.320399        7.7302437E-17
   9.447192        6.9236923E-17
   9.573984        4.3148484E-17
   9.700777       -7.0220909E-18
   9.827570       -8.4647364E-17
   9.954362       -1.8800107E-16
   10.08115       -3.0796877E-16
   10.20795       -4.2650639E-16
   10.33474       -5.1654706E-16
   10.46153       -5.4398436E-16
   10.58833       -4.7211149E-16
   10.71512       -2.6846119E-16
   10.84191        8.6575085E-17
   10.96870        5.9058075E-16
   11.09550        1.2111538E-15
   11.22229        1.8811846E-15
   11.34908        2.4993276E-15
   11.47587        2.9370935E-15
   11.60267        3.0530430E-15
   11.72946        2.7132860E-15
   11.85625        1.8161045E-15
   11.98304        3.1726334E-16
   12.10984       -1.7482393E-15
   12.23663       -4.2524010E-15
   12.36342       -6.9721959E-15
   12.49022       -9.6016580E-15
   12.61701       -1.1778363E-14
   12.74380       -1.3122237E-14
   12.87059       -1.3282346E-14
   12.99739       -1.1985594E-14
   13.12418       -9.0804194E-15
   13.25097       -4.5689000E-15
   13.37776        1.3777943E-15
   13.50456        8.4231811E-15
   13.63135        1.6087980E-14
   13.75814        2.3787802E-14
   13.88493        3.0879992E-14
   14.01173        3.6712383E-14
   14.13852        4.0667021E-14
   14.26531        4.2193747E-14
   14.39211        4.0831952E-14
   14.51890        3.6222456E-14
   14.64569        2.8115400E-14
   14.77248        1.6382271E-14
   14.89928        1.0406303E-15
   15.02607       -1.7702216E-14
   15.15286       -3.9385457E-14
   15.27965       -6.3216745E-14
   15.40645       -8.7993950E-14
   15.53324       -1.1204758E-13
   15.66003       -1.3322968E-13
   15.78682       -1.4897462E-13
   15.91362       -1.5645220E-13
   16.04041       -1.5282174E-13
   16.16720       -1.3557998E-13
   16.29399       -1.0297622E-13
   16.42079       -5.4448931E-14
   16.54758        8.9767933E-15
   16.67437        8.4400836E-14
   16.80116        1.6693659E-13
   16.92796        2.4983195E-13
   17.05475        3.2485462E-13
   17.18154        3.8294170E-13
   17.30834        4.1507582E-13
   17.43513        4.1331527E-13
   17.56192        3.7187335E-13
   17.68871        2.8812521E-13
   17.81551        1.6341475E-13
   17.94230        3.5472700E-15
   18.06909       -1.8111912E-13
   18.19588       -3.7603210E-13
   18.32268       -5.6325566E-13
   18.44947       -7.2268965E-13
   18.57626       -8.3361670E-13
   18.70305       -8.7646437E-13
   18.82985       -8.3465710E-13
   18.95664       -6.9642875E-13
   19.08343       -4.5647617E-13
   19.21023       -1.1734797E-13
   19.33702        3.0952408E-13
   19.46381        8.0322874E-13
   19.59060        1.3332919E-12
   19.71740        1.8601811E-12
   19.84419        2.3364780E-12
   19.97098        2.7088011E-12
   20.09777        2.9205399E-12
   20.22457        2.9154381E-12
   20.35136        2.6419884E-12
   20.47815        2.0585343E-12
   20.60494        1.1388343E-12
   20.73174       -1.2225300E-13
   20.85853       -1.7034517E-12
   20.98532       -3.5526881E-12
   21.11212       -5.5842895E-12
   21.23891       -7.6783831E-12
   21.36570       -9.6830486E-12
   21.49249       -1.1419609E-11
   21.61929       -1.2691214E-11
   21.74608       -1.3294606E-11
   21.87287       -1.3034599E-11
   21.99966       -1.1740556E-11
   22.12646       -9.2838107E-12
   22.25325       -5.5948315E-12
   22.38004       -6.7879404E-13
   22.50683        5.3718054E-12
   22.63363        1.2368733E-11
   22.76042        2.0024878E-11
   22.88721        2.7957182E-11
   23.01401        3.5696144E-11
   23.14080        4.2702050E-11
   23.26759        4.8387672E-11
   23.39438        5.2146919E-11
   23.52118        5.3388488E-11
   23.64797        5.1573322E-11
   23.77476        4.6254219E-11
   23.90155        3.7115908E-11
   24.02835        2.4013362E-11
   24.15514        7.0061973E-12
   24.28193       -1.3613309E-11
   24.40872       -3.7300944E-11
   24.53552       -6.3252271E-11
   24.66231       -9.0407355E-11
   24.78910       -1.1747006E-10
   24.91590       -1.4294269E-10
   25.04269       -1.6517633E-10
   25.16948       -1.8243622E-10
   25.29627       -1.9298016E-10
   25.42307       -1.9514801E-10
   25.54986       -1.8745838E-10
   25.67665       -1.6870903E-10
   25.80344       -1.3807566E-10
   25.93024       -9.5205059E-11
   26.05703       -4.0296683E-11
   26.18382        2.5831733E-11
   26.31061        1.0169941E-10
   26.43741        1.8514301E-10
   26.56420        2.7332583E-10
   26.69099        3.6277886E-10
   26.81779        4.4947496E-10
   26.94458        5.2893845E-10
   27.07137        5.9638827E-10
   27.19816        6.4691330E-10
   27.32495        6.7567729E-10
   27.45175        6.7814643E-10
   27.57854        6.5033395E-10
   27.70533        5.8905242E-10
   27.83213        4.9216281E-10
   27.95892        3.5880901E-10
   28.08571        1.8962465E-10
   28.21250       -1.3100625E-11
   28.33930       -2.4530930E-10
   28.46609       -5.0112914E-10
   28.59288       -7.7290296E-10
   28.71968       -1.0513017E-09
   28.84647       -1.3255256E-09
   28.97326       -1.5835939E-09
   29.10005       -1.8127212E-09
   29.22684       -1.9997679E-09
   29.35364       -2.1317608E-09
   29.48043       -2.1964555E-09
   29.60722       -2.1829325E-09
   29.73402       -2.0821909E-09
   29.86081       -1.8877242E-09
   29.98760       -1.5960420E-09
   30.11439       -1.2071147E-09
   30.24119       -7.2471351E-10
   30.36798       -1.5662191E-10
   30.49477        4.8530069E-10
   30.62156        1.1852171E-09
   30.74836        1.9235793E-09
   30.87515        2.6775651E-09
   31.00194        3.4216778E-09
   31.12873        4.1284851E-09
   31.25553        4.7694915E-09
   31.38232        5.3160947E-09
   31.50911        5.7406102E-09
   31.63591        6.0173062E-09
   31.76270        6.1234298E-09
   31.88949        6.0401688E-09
   32.01628        5.7535172E-09
   32.14308        5.2550120E-09
   32.26987        4.5423101E-09
   32.39666        3.6195831E-09
   32.52345        2.4977158E-09
   32.65025        1.1943013E-09
   32.77704       -2.6656277E-10
   32.90383       -1.8546787E-09
   33.03062       -3.5343277E-09
   33.15742       -5.2650209E-09
   33.28421       -7.0023791E-09
   33.41100       -8.6991347E-09
   33.53780       -1.0306220E-08
   33.66459       -1.1773927E-08
   33.79138       -1.3053101E-08
   33.91817       -1.4096357E-08
   34.04497       -1.4859292E-08
   34.17176       -1.5301673E-08
   34.29855       -1.5388602E-08
   34.42534       -1.5091604E-08
   34.55214       -1.4389651E-08
   34.67893       -1.3270089E-08
   34.80572       -1.1729448E-08
   34.93251       -9.7741095E-09
   35.05931       -7.4208089E-09
   35.18610       -4.6969397E-09
   35.31289       -1.6406351E-09
   35.43969        1.6994052E-09
   35.56648        5.2643592E-09
   35.69327        8.9860368E-09
   35.82006        1.2787924E-08
   35.94686        1.6586554E-08
   36.07365        2.0293173E-08
   36.20044        2.3815700E-08
   36.32723        2.7060937E-08
   36.45403        2.9936970E-08
   36.58082        3.2355725E-08
   36.70761        3.4235608E-08
   36.83440        3.5504108E-08
   36.96120        3.6100332E-08
   37.08799        3.5977354E-08
   37.21478        3.5104289E-08
   37.34158        3.3467995E-08
   37.46837        3.1074332E-08
   37.59516        2.7948948E-08
   37.72195        2.4137440E-08
   37.84875        1.9704942E-08
   37.97554        1.4735059E-08
   38.10233        9.3281987E-09
   38.22912        3.5992487E-09
   38.35592       -2.3252777E-09
   38.48271       -8.3106428E-09
   38.60950       -1.4217684E-08
   38.73629       -1.9906961E-08
   38.86309       -2.5243091E-08
   38.98988       -3.0099194E-08
   39.11667       -3.4361250E-08
   39.24347       -3.7932285E-08
   39.37026       -4.0736218E-08
   39.49705       -4.2721222E-08
   39.62384       -4.3862496E-08
   39.75064       -4.4164278E-08
   39.87743       -4.3661071E-08
   40.00422       -4.2417934E-08
   40.13101       -4.0529784E-08
   40.25780       -3.8119676E-08
   40.38460       -3.5336083E-08
   40.51139       -3.2349075E-08
   40.63818       -2.9345557E-08
   40.76498       -2.6523541E-08
   40.89177       -2.4085589E-08
   41.01856       -2.2231585E-08
   41.14536       -2.1150802E-08
   41.27215       -2.1013692E-08
   41.39894       -2.1963340E-08
   41.52573       -2.4106992E-08
   41.65253       -2.7507708E-08
   41.77932       -3.2176512E-08
   41.90611       -3.8065203E-08
   42.03290       -4.5060123E-08
   42.15969       -5.2977047E-08
   42.28649       -6.1557593E-08
   42.41328       -7.0467159E-08
   42.54007       -7.9294850E-08
   42.66687       -8.7555307E-08
   42.79366       -9.4692773E-08
   42.92045       -1.0008743E-07
   43.04725       -1.0306396E-07
   43.17404       -1.0290245E-07
   43.30083       -9.8851437E-08
   43.42762       -9.0142962E-08
   43.55442       -7.6009371E-08
   43.68121       -5.5701669E-08
   43.80800       -2.8508859E-08
   43.93479        6.2220660E-09
   44.06158        4.9065950E-08
   44.18838        1.0049978E-07
   44.31517        1.6088394E-07
   44.44196        2.3044502E-07
   44.56876        3.0926071E-07
   44.69555        3.9724731E-07
   44.82234        4.9415036E-07
   44.94913        5.9953840E-07
   45.07593        7.1280141E-07
   45.20272        8.3315189E-07
   45.32951        9.5963094E-07
   45.45631        1.0911175E-06
   45.58310        1.2263422E-06
   45.70989        1.3639034E-06
   45.83668        1.5022871E-06
   45.96347        1.6398889E-06
   46.09027        1.7750375E-06
   46.21706        1.9060208E-06
   46.34385        2.0311099E-06
   46.47065        2.1485862E-06
   46.59744        2.2567654E-06
   46.72423        2.3540210E-06
   46.85102        2.4388071E-06
   46.97782        2.5096786E-06
   47.10461        2.5653089E-06
   47.23140        2.6045079E-06
   47.35820        2.6262337E-06
   47.48499        2.6296073E-06
   47.61178        2.6139210E-06
   47.73857        2.5786483E-06
   47.86536        2.5234519E-06
   47.99216        2.4481888E-06
   48.11895        2.3529162E-06
   48.24574        2.2378961E-06
   48.37254        2.1035971E-06
   48.49933        1.9506990E-06
   48.62612        1.7800902E-06
   48.75291        1.5928665E-06
   48.87971        1.3903297E-06
   49.00650        1.1739751E-06
   49.13329        9.4548523E-07
   49.26009        7.0671206E-07
   49.38688        4.5965643E-07
   49.51367        2.0644453E-07
   49.64046       -5.0706504E-08
   49.76725       -3.0952330E-07
   49.89405       -5.6772001E-07
   50.02084       -8.2304780E-07
   50.14763       -1.0733472E-06
   50.27443       -1.3166052E-06
   50.40122       -1.5510154E-06
   50.52801       -1.7750383E-06
   50.65480       -1.9874622E-06
   50.78160       -2.1874594E-06
   50.90839       -2.3746406E-06
   51.03518       -2.5491011E-06
   51.16198       -2.7114563E-06
   51.28877       -2.8628715E-06
   51.41556       -3.0050710E-06
   51.54235       -3.1403385E-06
   51.66914       -3.2715002E-06
   51.79594       -3.4018869E-06
   51.92273       -3.5352839E-06
   52.04952       -3.6758584E-06
   52.17632       -3.8280709E-06
   52.30311       -3.9965726E-06
   52.42990       -4.1860831E-06
   52.55669       -4.4012618E-06
   52.68349       -4.6465625E-06
   52.81028       -4.9260893E-06
   52.93707       -5.2434434E-06
   53.06387       -5.6015760E-06
   53.19066       -6.0026441E-06
   53.31745       -6.4478791E-06
   53.44424       -6.9374687E-06
   53.57103       -7.4704603E-06
   53.69783       -8.0446862E-06
   53.82462       -8.6567161E-06
   53.95141       -9.3018407E-06
   54.07821       -9.9740901E-06
   54.20500       -1.0666283E-05
   54.33179       -1.1370111E-05
   54.45858       -1.2076263E-05
   54.58538       -1.2774579E-05
   54.71217       -1.3454236E-05
   54.83896       -1.4103964E-05
   54.96576       -1.4712285E-05
   55.09255       -1.5267768E-05
   55.21934       -1.5759306E-05
   55.34613       -1.6176395E-05
   55.47292       -1.6509412E-05
   55.59972       -1.6749886E-05
   55.72651       -1.6890763E-05
   55.85330       -1.6926637E-05
   55.98009       -1.6853975E-05
   56.10689       -1.6671276E-05
   56.23368       -1.6379230E-05
   56.36047       -1.5980799E-05
   56.48727       -1.5481270E-05
   56.61406       -1.4888268E-05
   56.74085       -1.4211690E-05
   56.86765       -1.3463608E-05
   56.99444       -1.2658124E-05
   57.12123       -1.1811165E-05
   57.24802       -1.0940244E-05
   57.37481       -1.0064177E-05
   57.50161       -9.2027649E-06
   57.62840       -8.3764435E-06
   57.75519       -7.6059155E-06
   57.88198       -6.9117659E-06
   58.00878       -6.3140651E-06
   58.13557       -5.8319720E-06
   58.26236       -5.4833436E-06
   58.38916       -5.2843598E-06
   58.51595       -5.2491646E-06
   58.64274       -5.3895401E-06
   58.76954       -5.7146076E-06
   58.89633       -6.2305739E-06
   59.02312       -6.9405182E-06
   59.14991       -7.8442345E-06
   59.27670       -8.9381238E-06
   59.40350       -1.0215141E-05
   59.53029       -1.1664810E-05
   59.65708       -1.3273294E-05
   59.78387       -1.5023523E-05
   59.91067       -1.6895401E-05
   60.03746       -1.8866054E-05
   60.16425       -2.0910151E-05
   60.29105       -2.3000273E-05
   60.41784       -2.5107334E-05
   60.54463       -2.7201053E-05
   60.67142       -2.9250452E-05
   60.79822       -3.1224390E-05
   60.92501       -3.3092125E-05
   61.05180       -3.4823872E-05
   61.17859       -3.6391371E-05
   61.30539       -3.7768430E-05
   61.43218       -3.8931463E-05
   61.55897       -3.9859962E-05
   61.68576       -4.0536965E-05
   61.81256       -4.0949417E-05
   61.93935       -4.1088482E-05
   62.06614       -4.0949792E-05
   62.19294       -4.0533567E-05
   62.31973       -3.9844694E-05
   62.44652       -3.8892660E-05
   62.57331       -3.7691440E-05
   62.70011       -3.6259233E-05
   62.82690       -3.4618151E-05
   62.95369       -3.2793814E-05
   63.08048       -3.0814863E-05
   63.20728       -2.8712409E-05
   63.33407       -2.6519443E-05
   63.46086       -2.4270206E-05
   63.58765       -2.1999544E-05
   63.71445       -1.9742258E-05
   63.84124       -1.7532473E-05
   63.96803       -1.5403042E-05
   64.09483       -1.3384989E-05
   64.22162       -1.1507023E-05
   64.34841       -9.7951188E-06
   64.47520       -8.2721745E-06
   64.60200       -6.9577604E-06
   64.72879       -5.8679602E-06
   64.85558       -5.0152903E-06
   64.98238       -4.4087105E-06
   65.10917       -4.0537120E-06
   65.23596       -3.9524748E-06
   65.36275       -4.1040762E-06
   65.48955       -4.5047536E-06
   65.61633       -5.1481907E-06
   65.74313       -6.0258180E-06
   65.86992       -7.1271238E-06
   65.99671       -8.4399371E-06
   66.12350       -9.9507051E-06
   66.25030       -1.1644720E-05
   66.37709       -1.3506316E-05
   66.50388       -1.5519012E-05
   66.63068       -1.7665612E-05
   66.75747       -1.9928262E-05
   66.88426       -2.2288452E-05
   67.01105       -2.4726996E-05
   67.13785       -2.7223999E-05
   67.26464       -2.9758765E-05
   67.39143       -3.2309759E-05
   67.51823       -3.4854547E-05
   67.64502       -3.7369780E-05
   67.77181       -3.9831193E-05
   67.89861       -4.2213684E-05
   68.02540       -4.4491415E-05
   68.15219       -4.6638030E-05
   68.27898       -4.8626880E-05
   68.40578       -5.0431361E-05
   68.53257       -5.2025294E-05
   68.65936       -5.3383363E-05
   68.78616       -5.4481628E-05
   68.91295       -5.5298016E-05
   69.03974       -5.5812874E-05
   69.16653       -5.6009514E-05
   69.29333       -5.5874738E-05
   69.42011       -5.5399290E-05
   69.54691       -5.4578293E-05
   69.67370       -5.3411601E-05
   69.80049       -5.1904040E-05
   69.92728       -5.0065541E-05
   70.05408       -4.7911162E-05
   70.18087       -4.5461013E-05
   70.30766       -4.2740008E-05
   70.43446       -3.9777526E-05
   70.56125       -3.6606943E-05
   70.68804       -3.3265056E-05
   70.81483       -2.9791430E-05
   70.94163       -2.6227639E-05
   71.06842       -2.2616498E-05
   71.19521       -1.9001223E-05
   71.32201       -1.5424615E-05
   71.44880       -1.1928241E-05
   71.57559       -8.5516713E-06
   71.70238       -5.3317794E-06
   71.82918       -2.3021273E-06
   71.95597        5.0755244E-07
   72.08276        3.0717449E-06
   72.20956        5.3694234E-06
   72.33635        7.3841838E-06
   72.46314        9.1042466E-06
   72.58994        1.0522324E-05
   72.71673        1.1635381E-05
   72.84352        1.2444263E-05
   72.97031        1.2953252E-05
   73.09711        1.3169542E-05
   73.22389        1.3102659E-05
   73.35069        1.2763852E-05
   73.47748        1.2165484E-05
   73.60427        1.1320431E-05
   73.73106        1.0241527E-05
   73.85786        8.9410705E-06
   73.98465        7.4304021E-06
   74.11144        5.7195766E-06
   74.23824        3.8171424E-06
   74.36503        1.7300235E-06
   74.49182       -5.3648608E-07
   74.61861       -2.9786165E-06
   74.74541       -5.5939176E-06
   74.87220       -8.3809628E-06
   74.99899       -1.1338969E-05
   75.12579       -1.4467370E-05
   75.25258       -1.7765335E-05
   75.37937       -2.1231264E-05
   75.50616       -2.4862295E-05
   75.63296       -2.8653818E-05
   75.75975       -3.2599037E-05
   75.88654       -3.6688587E-05
   76.01334       -4.0910221E-05
   76.14013       -4.5248587E-05
   76.26692       -4.9685110E-05
   76.39371       -5.4197943E-05
   76.52051       -5.8762067E-05
   76.64730       -6.3349478E-05
   76.77409       -6.7929454E-05
   76.90089       -7.2468938E-05
   77.02767       -7.6932978E-05
   77.15446       -8.1285245E-05
   77.28126       -8.5488609E-05
   77.40805       -8.9505746E-05
   77.53484       -9.3299699E-05
   77.66164       -9.6834563E-05
   77.78843       -1.0007599E-04
   77.91522       -1.0299183E-04
   78.04202       -1.0555251E-04
   78.16881       -1.0773160E-04
   78.29560       -1.0950604E-04
   78.42239       -1.1085648E-04
   78.54919       -1.1176744E-04
   78.67598       -1.1222739E-04
   78.80277       -1.1222877E-04
   78.92957       -1.1176788E-04
   79.05636       -1.1084465E-04
   79.18315       -1.0946253E-04
   79.30994       -1.0762801E-04
   79.43674       -1.0535043E-04
   79.56353       -1.0264145E-04
   79.69032       -9.9514706E-05
   79.81712       -9.5985342E-05
   79.94391       -9.2069618E-05
   80.07070       -8.7784516E-05
   80.19749       -8.3147330E-05
   80.32429       -7.8175406E-05
   80.45108       -7.2885821E-05
   80.57787       -6.7295208E-05
   80.70466       -6.1419603E-05
   80.83145       -5.5274388E-05
   80.95824       -4.8874288E-05
   81.08504       -4.2233434E-05
   81.21183       -3.5365505E-05
   81.33862       -2.8283910E-05
   81.46542       -2.1002028E-05
   81.59221       -1.3533476E-05
   81.71900       -5.8924002E-06
   81.84579        1.9062192E-06
   81.97259        9.8462606E-06
   82.09938        1.7910184E-05
   82.22617        2.6078778E-05
   82.35297        3.4330980E-05
   82.47976        4.2643696E-05
   82.60655        5.0991730E-05
   82.73335        5.9347793E-05
   82.86014        6.7682544E-05
   82.98693        7.5964752E-05
   83.11372        8.4161540E-05
   83.24052        9.2238675E-05
   83.36731        1.0016092E-04
   83.49410        1.0789254E-04
   83.62090        1.1539770E-04
   83.74769        1.2264105E-04
   83.87448        1.2958830E-04
   84.00127        1.3620667E-04
   84.12807        1.4246555E-04
   84.25486        1.4833696E-04
   84.38165        1.5379608E-04
   84.50844        1.5882163E-04
   84.63523        1.6339628E-04
   84.76202        1.6750694E-04
   84.88882        1.7114490E-04
   85.01561        1.7430601E-04
   85.14240        1.7699064E-04
   85.26920        1.7920359E-04
   85.39599        1.8095398E-04
   85.52278        1.8225488E-04
   85.64957        1.8312308E-04
   85.77637        1.8357854E-04
   85.90316        1.8364406E-04
   86.02995        1.8334472E-04
   86.15675        1.8270730E-04
   86.28354        1.8175984E-04
   86.41033        1.8053107E-04
   86.53712        1.7904994E-04
   86.66392        1.7734511E-04
   86.79071        1.7544467E-04
   86.91750        1.7337571E-04
   87.04430        1.7116411E-04
   87.17109        1.6883436E-04
   87.29788        1.6640949E-04
   87.42467        1.6391095E-04
   87.55147        1.6135885E-04
   87.67826        1.5877192E-04
   87.80505        1.5616769E-04
   87.93185        1.5356280E-04
   88.05864        1.5097317E-04
   88.18543        1.4841424E-04
   88.31222        1.4590123E-04
   88.43901        1.4344932E-04
   88.56580        1.4107380E-04
   88.69260        1.3879026E-04
   88.81939        1.3661449E-04
   88.94618        1.3456262E-04
   89.07298        1.3265091E-04
   89.19977        1.3089557E-04
   89.32656        1.2931258E-04
   89.45335        1.2791729E-04
   89.58015        1.2672406E-04
   89.70694        1.2574588E-04
   89.83373        1.2499388E-04
   89.96053        1.2447686E-04
   90.08732        1.2420086E-04
   90.21411        1.2416868E-04
   90.34090        1.2437961E-04
   90.46770        1.2482896E-04
   90.59449        1.2550794E-04
   90.72128        1.2640348E-04
   90.84808        1.2749818E-04
   90.97487        1.2877042E-04
   91.10166        1.3019456E-04
   91.22845        1.3174122E-04
   91.35525        1.3337773E-04
   91.48204        1.3506868E-04
   91.60883        1.3677649E-04
   91.73563        1.3846217E-04
   91.86242        1.4008606E-04
   91.98921        1.4160862E-04
   92.11600        1.4299130E-04
   92.24279        1.4419726E-04
   92.36958        1.4519229E-04
   92.49638        1.4594541E-04
   92.62317        1.4642964E-04
   92.74996        1.4662252E-04
   92.87675        1.4650659E-04
   93.00355        1.4606975E-04
   93.13034        1.4530549E-04
   93.25713        1.4421291E-04
   93.38393        1.4279679E-04
   93.51072        1.4106733E-04
   93.63751        1.3903984E-04
   93.76431        1.3673436E-04
   93.89110        1.3417510E-04
   94.01789        1.3138987E-04
   94.14468        1.2840932E-04
   94.27148        1.2526628E-04
   94.39827        1.2199496E-04
   94.52506        1.1863021E-04
   94.65186        1.1520668E-04
   94.77865        1.1175814E-04
   94.90544        1.0831676E-04
   95.03223        1.0491243E-04
   95.15903        1.0157224E-04
   95.28582        9.8319928E-05
   95.41261        9.5175499E-05
   95.53941        9.2154849E-05
   95.66620        8.9269590E-05
   95.79299        8.6526838E-05
   95.91978        8.3929212E-05
   96.04657        8.1474791E-05
   96.17336        7.9157282E-05
   96.30016        7.6966142E-05
   96.42695        7.4886811E-05
   96.55374        7.2901064E-05
   96.68053        7.0987269E-05
   96.80733        6.9120841E-05
   96.93412        6.7274639E-05
   97.06091        6.5419459E-05
   97.18771        6.3524487E-05
   97.31450        6.1557854E-05
   97.44129        5.9487142E-05
   97.56808        5.7279987E-05
   97.69488        5.4904631E-05
   97.82167        5.2330506E-05
   97.94846        4.9528851E-05
   98.07526        4.6473288E-05
   98.20205        4.3140448E-05
   98.32884        3.9510523E-05
   98.45564        3.5567868E-05
   98.58243        3.1301490E-05
   98.70922        2.6705580E-05
   98.83601        2.1779930E-05
   98.96281        1.6530297E-05
   99.08960        1.0968697E-05
   99.21639        5.1135871E-06
   99.34319       -1.0100605E-06
   99.46998       -7.3707997E-06
   99.59677       -1.3930890E-05
   99.72356       -2.0646599E-05
   99.85035       -2.7468666E-05
   99.97714       -3.4342887E-05
   100.1039       -4.1210849E-05
   100.2307       -4.8010788E-05
   100.3575       -5.4678545E-05
   100.4843       -6.1148661E-05
   100.6111       -6.7355511E-05
   100.7379       -7.3234507E-05
   100.8647       -7.8723337E-05
   100.9915       -8.3763174E-05
   101.1183       -8.8299894E-05
   101.2451       -9.2285161E-05
   101.3719       -9.5677504E-05
   101.4987       -9.8443183E-05
   101.6255       -1.0055696E-04
   101.7522       -1.0200268E-04
   101.8790       -1.0277365E-04
   102.0058       -1.0287286E-04
   102.1326       -1.0231288E-04
   102.2594       -1.0111568E-04
   102.3862       -9.9312150E-05
   102.5130       -9.6941454E-05
   102.6398       -9.4050170E-05
   102.7666       -9.0691363E-05
   102.8934       -8.6923363E-05
   103.0202       -8.2808649E-05
   103.1470       -7.8412493E-05
   103.2738       -7.3801661E-05
   103.4006       -6.9043133E-05
   103.5273       -6.4202817E-05
   103.6541       -5.9344362E-05
   103.7809       -5.4528085E-05
   103.9077       -4.9810031E-05
   104.0345       -4.5241170E-05
   104.1613       -4.0866787E-05
   104.2881       -3.6726036E-05
   104.4149       -3.2851673E-05
   104.5417       -2.9269981E-05
   104.6685       -2.6000867E-05
   104.7953       -2.3058084E-05
   104.9221       -2.0449610E-05
   105.0489       -1.8178131E-05
   105.1756       -1.6241602E-05
   105.3024       -1.4633857E-05
   105.4292       -1.3345240E-05
   105.5560       -1.2363249E-05
   105.6828       -1.1673125E-05
   105.8096       -1.1258417E-05
   105.9364       -1.1101451E-05
   106.0632       -1.1183735E-05
   106.1900       -1.1486268E-05
   106.3168       -1.1989758E-05
   106.4436       -1.2674757E-05
   106.5704       -1.3521715E-05
   106.6972       -1.4510973E-05
   106.8240       -1.5622720E-05
   106.9507       -1.6836908E-05
   107.0775       -1.8133191E-05
   107.2043       -1.9490868E-05
   107.3311       -2.0888878E-05
   107.4579       -2.2305849E-05
   107.5847       -2.3720218E-05
   107.7115       -2.5110454E-05
   107.8383       -2.6455327E-05
   107.9651       -2.7734313E-05
   108.0919       -2.8928012E-05
   108.2187       -3.0018680E-05
   108.3455       -3.0990755E-05
   108.4723       -3.1831412E-05
   108.5990       -3.2531116E-05
   108.7258       -3.3084067E-05
   108.8526       -3.3488650E-05
   108.9794       -3.3747692E-05
   109.1062       -3.3868630E-05
   109.2330       -3.3863482E-05
   109.3598       -3.3748671E-05
   109.4866       -3.3544631E-05
   109.6134       -3.3275239E-05
   109.7402       -3.2967044E-05
   109.8670       -3.2648357E-05
   109.9938       -3.2348173E-05
   110.1206       -3.2094995E-05
   110.2474       -3.1915599E-05
   110.3741       -3.1833748E-05
   110.5009       -3.1868967E-05
   110.6277       -3.2035350E-05