  -4.500000        5.0095452E-18
  -4.373208        5.0093152E-18
  -4.246415        5.0089591E-18
  -4.119622        5.0085534E-18
  -3.992829        5.0081460E-18
  -3.866037        5.0077651E-18
  -3.739244        5.0074251E-18
  -3.612452        5.0071319E-18
  -3.485659        5.0068870E-18
  -3.358866        5.0066914E-18
  -3.232074        5.0065421E-18
  -3.105281        5.0064354E-18
  -2.978488        5.0063659E-18
  -2.851696        5.0063250E-18
  -2.724903        5.0063022E-18
  -2.598110        5.0062886E-18
  -2.471318        5.0062728E-18
  -2.344525        5.0062489E-18
  -2.217732        5.0062116E-18
  -2.090940        5.0061583E-18
  -1.964147        5.0060871E-18
  -1.837354        5.0059999E-18
  -1.710562        5.0058961E-18
  -1.583769        5.0057741E-18
  -1.456976        5.0056351E-18
  -1.330184        5.0054808E-18
  -1.203391        5.0053117E-18
  -1.076598        5.0051301E-18
 -0.9498057        5.0049390E-18
 -0.8230131        5.0047401E-18
 -0.6962205        5.0045370E-18
 -0.5694278        5.0043298E-18
 -0.4426351        5.0041201E-18
 -0.3158425        5.0039067E-18
 -0.1890498        5.0036891E-18
 -6.2257171E-02    5.0034687E-18
  6.4535484E-02    5.0032466E-18
  0.1913281        5.0030233E-18
  0.3181208        5.0028020E-18
  0.4449134        5.0025853E-18
  0.5717061        5.0023764E-18
  0.6984987        5.0021754E-18
  0.8252914        5.0019827E-18
  0.9520841        5.0017995E-18
   1.078877        5.0016241E-18
   1.205669        5.0014545E-18
   1.332462        5.0012924E-18
   1.459255        5.0011361E-18
   1.586047        5.0009867E-18
   1.712840        5.0008420E-18
   1.839633        5.0007030E-18
   1.966425        5.0005657E-18
   2.093218        5.0004296E-18
   2.220011        5.0002923E-18
   2.346803        5.0001538E-18
   2.473596        5.0000111E-18
   2.600389        4.9998667E-18
   2.727181        4.9997212E-18
   2.853974        4.9995764E-18
   2.980767        4.9994312E-18
   3.107559        4.9992877E-18
   3.234352        4.9991459E-18
   3.361145        4.9990040E-18
   3.487937        4.9988625E-18
   3.614730        4.9987219E-18
   3.741522        4.9985821E-18
   3.868315        4.9984440E-18
   3.995108        4.9983087E-18
   4.121901        4.9981764E-18
   4.248693        4.9980461E-18
   4.375485        4.9979171E-18
   4.502278        4.9977872E-18
   4.629071        4.9976569E-18
   4.755864        4.9975233E-18
   4.882656        4.9973864E-18
   5.009449        4.9972471E-18
   5.136241        4.9971044E-18
   5.263034        4.9969592E-18
   5.389827        4.9968120E-18
   5.516620        4.9966614E-18
   5.643412        4.9965071E-18
   5.770205        4.9963479E-18
   5.896997        4.9961837E-18
   6.023790        4.9960154E-18
   6.150583        4.9958433E-18
   6.277375        4.9956684E-18
   6.404168        4.9954930E-18
   6.530961        4.9953164E-18
   6.657753        4.9951394E-18
   6.784546        4.9949620E-18
   6.911339        4.9947841E-18
   7.038131        4.9946063E-18
   7.164924        4.9944293E-18
   7.291717        4.9942535E-18
   7.418509        4.9940806E-18
   7.545302        4.9939127E-18
   7.672095        4.9937497E-18
   7.798887        4.9935922E-18
   7.925680        4.9934395E-18
   8.052472        4.9932902E-18
   8.179265        4.9931434E-18
   8.306058        4.9929966E-18
   8.432851        4.9928506E-18
   8.559643        4.9927034E-18
   8.686436        4.9925545E-18
   8.813229        4.9924031E-18
   8.940022        4.9922492E-18
   9.066813        4.9920912E-18
   9.193606        4.9919287E-18
   9.320399        4.9917612E-18
   9.447192        4.9915900E-18
   9.573984        4.9914150E-18
   9.700777        4.9912384E-18
   9.827570        4.9910631E-18
   9.954362        4.9908894E-18
   10.08115        4.9907202E-18
   10.20795        4.9905564E-18
   10.33474        4.9903980E-18
   10.46153        4.9902437E-18
   10.58833        4.9900940E-18
   10.71512        4.9899476E-18
   10.84191        4.9898033E-18
   10.96870        4.9896602E-18
   11.09550        4.9895175E-18
   11.22229        4.9893723E-18
   11.34908        4.9892242E-18
   11.47587        4.9890704E-18
   11.60267        4.9889091E-18
   11.72946        4.9887383E-18
   11.85625        4.9885571E-18
   11.98304        4.9883652E-18
   12.10984        4.9881634E-18
   12.23663        4.9879541E-18
   12.36342        4.9877353E-18
   12.49022        4.9875091E-18
   12.61701        4.9872746E-18
   12.74380        4.9870310E-18
   12.87059        4.9867754E-18
   12.99739        4.9865078E-18
   13.12418        4.9862249E-18
   13.25097        4.9859267E-18
   13.37776        4.9856128E-18
   13.50456        4.9852827E-18
   13.63135        4.9849357E-18
   13.75814        4.9845726E-18
   13.88493        4.9841942E-18
   14.01173        4.9838012E-18
   14.13852        4.9833947E-18
   14.26531        4.9829778E-18
   14.39211        4.9825526E-18
   14.51890        4.9821229E-18
   14.64569        4.9816894E-18
   14.77248        4.9812539E-18
   14.89928        4.9808164E-18
   15.02607        4.9803763E-18
   15.15286        4.9799325E-18
   15.27965        4.9794838E-18
   15.40645        4.9790292E-18
   15.53324        4.9785668E-18
   15.66003        4.9780982E-18
   15.78682        4.9776234E-18
   15.91362        4.9771429E-18
   16.04041        4.9766594E-18
   16.16720        4.9761730E-18
   16.29399        4.9756862E-18
   16.42079        4.9751990E-18
   16.54758        4.9747109E-18
   16.67437        4.9742233E-18
   16.80116        4.9737365E-18
   16.92796        4.9732506E-18
   17.05475        4.9727667E-18
   17.18154        4.9722861E-18
   17.30834        4.9718092E-18
   17.43513        4.9713369E-18
   17.56192        4.9708695E-18
   17.68871        4.9704067E-18
   17.81551        4.9699501E-18
   17.94230        4.9694993E-18
   18.06909        4.9690551E-18
   18.19588        4.9686188E-18
   18.32268        4.9681911E-18
   18.44947        4.9677709E-18
   18.57626        4.9673594E-18
   18.70305        4.9669532E-18
   18.82985        4.9665529E-18
   18.95664        4.9661571E-18
   19.08343        4.9657642E-18
   19.21023        4.9653733E-18
   19.33702        4.9649837E-18
   19.46381        4.9645933E-18
   19.59060        4.9642012E-18
   19.71740        4.9638050E-18
   19.84419        4.9634034E-18
   19.97098        4.9629964E-18
   20.09777        4.9625836E-18
   20.22457        4.9621663E-18
   20.35136        4.9617461E-18
   20.47815        4.9613263E-18
   20.60494        4.9609103E-18
   20.73174        4.9604983E-18
   20.85853        4.9600942E-18
   20.98532        4.9596976E-18
   21.11212        4.9593088E-18
   21.23891        4.9589279E-18
   21.36570        4.9585549E-18
   21.49249        4.9581880E-18
   21.61929        4.9578274E-18
   21.74608        4.9574725E-18
   21.87287        4.9571238E-18
   21.99966        4.9567826E-18
   22.12646        4.9564493E-18
   22.25325        4.9561242E-18
   22.38004        4.9558086E-18
   22.50683        4.9555038E-18
   22.63363        4.9552106E-18
   22.76042        4.9549277E-18
   22.88721        4.9546564E-18
   23.01401        4.9543958E-18
   23.14080        4.9541431E-18
   23.26759        4.9538970E-18
   23.39438        4.9536542E-18
   23.52118        4.9534135E-18
   23.64797        4.9531707E-18
   23.77476        4.9529255E-18
   23.90155        4.9526773E-18
   24.02835        4.9524275E-18
   24.15514        4.9521752E-18
   24.28193        4.9519234E-18
   24.40872        4.9516715E-18
   24.53552        4.9514204E-18
   24.66231        4.9511702E-18
   24.78910        4.9509187E-18
   24.91590        4.9506673E-18
   25.04269        4.9504154E-18
   25.16948        4.9501619E-18
   25.29627        4.9499083E-18
   25.42307        4.9496532E-18
   25.54986        4.9493992E-18
   25.67665        4.9491449E-18
   25.80344        4.9488917E-18
   25.93024        4.9486407E-18
   26.05703        4.9483917E-18
   26.18382        4.9481469E-18
   26.31061        4.9479057E-18
   26.43741        4.9476700E-18
   26.56420        4.9474404E-18
   26.69099        4.9472150E-18
   26.81779        4.9469925E-18
   26.94458        4.9467729E-18
   27.07137        4.9465541E-18
   27.19816        4.9463329E-18
   27.32495        4.9461095E-18
   27.45175        4.9458833E-18
   27.57854        4.9456542E-18
   27.70533        4.9454213E-18
   27.83213        4.9451856E-18
   27.95892        4.9449477E-18
   28.08571        4.9447066E-18
   28.21250        4.9444634E-18
   28.33930        4.9442182E-18
   28.46609        4.9439725E-18
   28.59288        4.9437264E-18
   28.71968        4.9434824E-18
   28.84647        4.9432413E-18
   28.97326        4.9430035E-18
   29.10005        4.9427685E-18
   29.22684        4.9425369E-18
   29.35364        4.9423061E-18
   29.48043        4.9420749E-18
   29.60722        4.9418421E-18
   29.73402        4.9416055E-18
   29.86081        4.9413656E-18
   29.98760        4.9411191E-18
   30.11439        4.9408668E-18
   30.24119        4.9406075E-18
   30.36798        4.9403403E-18
   30.49477        4.9400670E-18
   30.62156        4.9397845E-18
   30.74836        4.9394933E-18
   30.87515        4.9391930E-18
   31.00194        4.9388841E-18
   31.12873        4.9385660E-18
   31.25553        4.9382389E-18
   31.38232        4.9379026E-18
   31.50911        4.9375577E-18
   31.63591        4.9372041E-18
   31.76270        4.9368430E-18
   31.88949        4.9364749E-18
   32.01628        4.9361019E-18
   32.14308        4.9357255E-18
   32.26987        4.9353462E-18
   32.39666        4.9349670E-18
   32.52345        4.9345885E-18
   32.65025        4.9342097E-18
   32.77704        4.9338304E-18
   32.90383        4.9334503E-18
   33.03062        4.9330674E-18
   33.15742        4.9326823E-18
   33.28421        4.9322931E-18
   33.41100        4.9319010E-18
   33.53780        4.9315069E-18
   33.66459        4.9311098E-18
   33.79138        4.9307115E-18
   33.91817        4.9303124E-18
   34.04497        4.9299125E-18
   34.17176        4.9295117E-18
   34.29855        4.9291114E-18
   34.42534        4.9287110E-18
   34.55214        4.9283098E-18
   34.67893        4.9279091E-18
   34.80572        4.9275079E-18
   34.93251        4.9271079E-18
   35.05931        4.9267088E-18
   35.18610        4.9263093E-18
   35.31289        4.9259106E-18
   35.43969        4.9255119E-18
   35.56648        4.9251124E-18
   35.69327        4.9247132E-18
   35.82006        4.9243150E-18
   35.94686        4.9239163E-18
   36.07365        4.9235196E-18
   36.20044        4.9231251E-18
   36.32723        4.9227309E-18
   36.45403        4.9223392E-18
   36.58082        4.9219509E-18
   36.70761        4.9215658E-18
   36.83440        4.9211845E-18
   36.96120        4.9208073E-18
   37.08799        4.9204347E-18
   37.21478        4.9200653E-18
   37.34158        4.9196981E-18
   37.46837        4.9193287E-18
   37.59516        4.9189557E-18
   37.72195        4.9185764E-18
   37.84875        4.9181876E-18
   37.97554        4.9177893E-18
   38.10233        4.9173803E-18
   38.22912        4.9169601E-18
   38.35592        4.9165337E-18
   38.48271        4.9161023E-18
   38.60950        4.9156705E-18
   38.73629        4.9152408E-18
   38.86309        4.9148156E-18
   38.98988        4.9143991E-18
   39.11667        4.9139922E-18
   39.24347        4.9135935E-18
   39.37026        4.9132043E-18
   39.49705        4.9128225E-18
   39.62384        4.9124470E-18
   39.75064        4.9120756E-18
   39.87743        4.9117058E-18
   40.00422        4.9113357E-18
   40.13101        4.9109651E-18
   40.25780        4.9105945E-18
   40.38460        4.9102239E-18
   40.51139        4.9098554E-18
   40.63818        4.9094902E-18
   40.76498        4.9091288E-18
   40.89177        4.9087731E-18
   41.01856        4.9084223E-18
   41.14536        4.9080741E-18
   41.27215        4.9077267E-18
   41.39894        4.9073780E-18
   41.52573        4.9070244E-18
   41.65253        4.9066646E-18
   41.77932        4.9062965E-18
   41.90611        4.9059197E-18
   42.03290        4.9055330E-18
   42.15969        4.9051376E-18
   42.28649        4.9047344E-18
   42.41328        4.9043249E-18
   42.54007        4.9039113E-18
   42.66687        4.9034952E-18
   42.79366        4.9030788E-18
   42.92045        4.9026627E-18
   43.04725        4.9022491E-18
   43.17404        4.9018396E-18
   43.30083        4.9014327E-18
   43.42762        4.9010290E-18
   43.55442        4.9006257E-18
   43.68121        4.9002246E-18
   43.80800        4.8998234E-18
   43.93479        4.8994234E-18
   44.06158        4.8990239E-18
   44.18838        4.8986252E-18
   44.31517        4.8982278E-18
   44.44196        4.8978311E-18
   44.56876        4.8974357E-18
   44.69555        4.8970407E-18
   44.82234        4.8966441E-18
   44.94913        4.8962458E-18
   45.07593        4.8958442E-18
   45.20272        4.8954373E-18
   45.32951        4.8950245E-18
   45.45631        4.8946051E-18
   45.58310        4.8941787E-18
   45.70989        4.8937465E-18
   45.83668        4.8933081E-18
   45.96347        4.8928660E-18
   46.09027        4.8924222E-18
   46.21706        4.8919805E-18
   46.34385        4.8915437E-18
   46.47065        4.8911165E-18
   46.59744        4.8907012E-18
   46.72423        4.8902996E-18
   46.85102        4.8899113E-18
   46.97782        4.8895357E-18
   47.10461        4.8891701E-18
   47.23140        4.8888132E-18
   47.35820        4.8884608E-18
   47.48499        4.8881097E-18
   47.61178        4.8877581E-18
   47.73857        4.8874029E-18
   47.86536        4.8870418E-18
   47.99216        4.8866741E-18
   48.11895        4.8862982E-18
   48.24574        4.8859143E-18
   48.37254        4.8855227E-18
   48.49933        4.8851240E-18
   48.62612        4.8847191E-18
   48.75291        4.8843088E-18
   48.87971        4.8838940E-18
   49.00650        4.8834762E-18
   49.13329        4.8830556E-18
   49.26009        4.8826321E-18
   49.38688        4.8822044E-18
   49.51367        4.8817718E-18
   49.64046        4.8813326E-18
   49.76725        4.8808851E-18
   49.89405        4.8804322E-18
   50.02084        4.8799715E-18
   50.14763        4.8795049E-18
   50.27443        4.8790347E-18
   50.40122        4.8785624E-18
   50.52801        4.8780896E-18
   50.65480        4.8776206E-18
   50.78160        4.8771574E-18
   50.90839        4.8767037E-18
   51.03518        4.8762607E-18
   51.16198        4.8758318E-18
   51.28877        4.8754162E-18
   51.41556        4.8750142E-18
   51.54235        4.8746225E-18
   51.66914        4.8742387E-18
   51.79594        4.8738594E-18
   51.92273        4.8734806E-18
   52.04952        4.8730988E-18
   52.17632        4.8727117E-18
   52.30311        4.8723184E-18
   52.42990        4.8719193E-18
   52.55669        4.8715160E-18
   52.68349        4.8711099E-18
   52.81028        4.8707021E-18
   52.93707        4.8702955E-18
   53.06387        4.8698902E-18
   53.19066        4.8694878E-18
   53.31745        4.8690858E-18
   53.44424        4.8686829E-18
   53.57103        4.8682772E-18
   53.69783        4.8678657E-18
   53.82462        4.8674455E-18
   53.95141        4.8670149E-18
   54.07821        4.8665744E-18
   54.20500        4.8661240E-18
   54.33179        4.8656658E-18
   54.45858        4.8652022E-18
   54.58538        4.8647377E-18
   54.71217        4.8642765E-18
   54.83896        4.8638208E-18
   54.96576        4.8633745E-18
   55.09255        4.8629398E-18
   55.21934        4.8625159E-18
   55.34613        4.8621027E-18
   55.47292        4.8616978E-18
   55.59972        4.8612991E-18
   55.72651        4.8609045E-18
   55.85330        4.8605116E-18
   55.98009        4.8601195E-18
   56.10689        4.8597258E-18
   56.23368        4.8593288E-18
   56.36047        4.8589296E-18
   56.48727        4.8585285E-18
   56.61406        4.8581252E-18
   56.74085        4.8577199E-18
   56.86765        4.8573146E-18
   56.99444        4.8569088E-18
   57.12123        4.8565019E-18
   57.24802        4.8560945E-18
   57.37481        4.8556863E-18
   57.50161        4.8552752E-18
   57.62840        4.8548603E-18
   57.75519        4.8544397E-18
   57.88198        4.8540125E-18
   58.00878        4.8535778E-18
   58.13557        4.8531340E-18
   58.26236        4.8526828E-18
   58.38916        4.8522237E-18
   58.51595        4.8517592E-18
   58.64274        4.8512915E-18
   58.76954        4.8508216E-18
   58.89633        4.8503526E-18
   59.02312        4.8498865E-18
   59.14991        4.8494249E-18
   59.27670        4.8489687E-18
   59.40350        4.8485179E-18
   59.53029        4.8480741E-18
   59.65708        4.8476349E-18
   59.78387        4.8472019E-18
   59.91067        4.8467717E-18
   60.03746        4.8463441E-18
   60.16425        4.8459197E-18
   60.29105        4.8454975E-18
   60.41784        4.8450773E-18
   60.54463        4.8446608E-18
   60.67142        4.8442484E-18
   60.79822        4.8438410E-18
   60.92501        4.8434386E-18
   61.05180        4.8430391E-18
   61.17859        4.8426437E-18
   61.30539        4.8422491E-18
   61.43218        4.8418525E-18
   61.55897        4.8414509E-18
   61.68576        4.8410427E-18
   61.81256        4.8406279E-18
   61.93935        4.8402043E-18
   62.06614        4.8397726E-18
   62.19294        4.8393346E-18
   62.31973        4.8388916E-18
   62.44652        4.8384462E-18
   62.57331        4.8379983E-18
   62.70011        4.8375507E-18
   62.82690        4.8371045E-18
   62.95369        4.8366611E-18
   63.08048        4.8362202E-18
   63.20728        4.8357810E-18
   63.33407        4.8353451E-18
   63.46086        4.8349108E-18
   63.58765        4.8344786E-18
   63.71445        4.8340485E-18
   63.84124        4.8336204E-18
   63.96803        4.8331956E-18
   64.09483        4.8327746E-18
   64.22162        4.8323548E-18
   64.34841        4.8319387E-18
   64.47520        4.8315235E-18
   64.60200        4.8311087E-18
   64.72879        4.8306918E-18
   64.85558        4.8302711E-18
   64.98238        4.8298451E-18
   65.10917        4.8294109E-18
   65.23596        4.8289683E-18
   65.36275        4.8285179E-18
   65.48955        4.8280601E-18
   65.61633        4.8275952E-18
   65.74313        4.8271270E-18
   65.86992        4.8266559E-18
   65.99671        4.8261857E-18
   66.12350        4.8257167E-18
   66.25030        4.8252518E-18
   66.37709        4.8247915E-18
   66.50388        4.8243357E-18
   66.63068        4.8238837E-18
   66.75747        4.8234357E-18
   66.88426        4.8229903E-18
   67.01105        4.8225469E-18
   67.13785        4.8221044E-18
   67.26464        4.8216631E-18
   67.39143        4.8212230E-18
   67.51823        4.8207846E-18
   67.64502        4.8203491E-18
   67.77181        4.8199177E-18
   67.89861        4.8194917E-18
   68.02540        4.8190719E-18
   68.15219        4.8186600E-18
   68.27898        4.8182555E-18
   68.40578        4.8178572E-18
   68.53257        4.8174656E-18
   68.65936        4.8170793E-18
   68.78616        4.8166971E-18
   68.91295        4.8163174E-18
   69.03974        4.8159378E-18
   69.16653        4.8155577E-18
   69.29333        4.8151730E-18
   69.42011        4.8147838E-18
   69.54691        4.8143876E-18
   69.67370        4.8139827E-18
   69.80049        4.8135704E-18
   69.92728        4.8131506E-18
   70.05408        4.8127242E-18
   70.18087        4.8122920E-18
   70.30766        4.8118556E-18
   70.43446        4.8114185E-18
   70.56125        4.8109800E-18
   70.68804        4.8105421E-18
   70.81483        4.8101049E-18
   70.94163        4.8096681E-18
   71.06842        4.8092310E-18
   71.19521        4.8087926E-18
   71.32201        4.8083509E-18
   71.44880        4.8079050E-18
   71.57559        4.8074546E-18
   71.70238        4.8069980E-18
   71.82918        4.8065360E-18
   71.95597        4.8060683E-18
   72.08276        4.8055980E-18
   72.20956        4.8051265E-18
   72.33635        4.8046538E-18
   72.46314        4.8041835E-18
   72.58994        4.8037178E-18
   72.71673        4.8032563E-18
   72.84352        4.8027996E-18
   72.97031        4.8023476E-18
   73.09711        4.8018976E-18
   73.22389        4.8014476E-18
   73.35069        4.8009960E-18
   73.47748        4.8005427E-18
   73.60427        4.8000848E-18
   73.73106        4.7996249E-18
   73.85786        4.7991629E-18
   73.98465        4.7987018E-18
   74.11144        4.7982435E-18
   74.23824        4.7977923E-18
   74.36503        4.7973498E-18
   74.49182        4.7969180E-18
   74.61861        4.7964978E-18
   74.74541        4.7960891E-18
   74.87220        4.7956900E-18
   74.99899        4.7952963E-18
   75.12579        4.7949050E-18
   75.25258        4.7945113E-18
   75.37937        4.7941114E-18
   75.50616        4.7937011E-18
   75.63296        4.7932813E-18
   75.75975        4.7928499E-18
   75.88654        4.7924078E-18
   76.01334        4.7919582E-18
   76.14013        4.7915041E-18
   76.26692        4.7910491E-18
   76.39371        4.7905983E-18
   76.52051        4.7901521E-18
   76.64730        4.7897124E-18
   76.77409        4.7892790E-18
   76.90089        4.7888492E-18
   77.02767        4.7884232E-18
   77.15446        4.7879973E-18
   77.28126        4.7875679E-18
   77.40805        4.7871357E-18
   77.53484        4.7866986E-18
   77.66164        4.7862560E-18
   77.78843        4.7858089E-18
   77.91522        4.7853602E-18
   78.04202        4.7849115E-18
   78.16881        4.7844660E-18
   78.29560        4.7840276E-18
   78.42239        4.7835971E-18
   78.54919        4.7831777E-18
   78.67598        4.7827707E-18
   78.80277        4.7823766E-18
   78.92957        4.7819932E-18
   79.05636        4.7816184E-18
   79.18315        4.7812483E-18
   79.30994        4.7808798E-18
   79.43674        4.7805067E-18
   79.56353        4.7801258E-18
   79.69032        4.7797350E-18
   79.81712        4.7793305E-18
   79.94391        4.7789115E-18
   80.07070        4.7784789E-18
   80.19749        4.7780318E-18
   80.32429        4.7775727E-18
   80.45108        4.7771025E-18
   80.57787        4.7766227E-18
   80.70466        4.7761347E-18
   80.83145        4.7756392E-18
   80.95824        4.7751383E-18
   81.08504        4.7746325E-18
   81.21183        4.7741242E-18
   81.33862        4.7736142E-18
   81.46542        4.7731047E-18
   81.59221        4.7725985E-18
   81.71900        4.7721005E-18
   81.84579        4.7716149E-18
   81.97259        4.7711472E-18
   82.09938        4.7707042E-18
   82.22617        4.7702906E-18
   82.35297        4.7699097E-18
   82.47976        4.7695639E-18
   82.60655        4.7692509E-18
   82.73335        4.7689659E-18
   82.86014        4.7687028E-18
   82.98693        4.7684535E-18
   83.11372        4.7682065E-18
   83.24052        4.7679509E-18
   83.36731        4.7676747E-18
   83.49410        4.7673682E-18
   83.62090        4.7670183E-18
   83.74769        4.7666175E-18
   83.87448        4.7661584E-18
   84.00127        4.7656336E-18
   84.12807        4.7650405E-18
   84.25486        4.7643775E-18
   84.38165        4.7636471E-18
   84.50844        4.7628543E-18
   84.63523        4.7620076E-18
   84.76202        4.7611188E-18
   84.88882        4.7602044E-18
   85.01561        4.7592813E-18
   85.14240        4.7583751E-18
   85.26920        4.7575086E-18
   85.39599        4.7567091E-18
   85.52278        4.7560052E-18
   85.64957        4.7554245E-18
   85.77637        4.7549907E-18
   85.90316        4.7547260E-18
   86.02995        4.7546437E-18
   86.15675        4.7547504E-18
   86.28354        4.7550444E-18
   86.41033        4.7555118E-18
   86.53712        4.7561305E-18
   86.66392        4.7568675E-18
   86.79071        4.7576790E-18
   86.91750        4.7585124E-18
   87.04430        4.7593081E-18
   87.17109        4.7600005E-18
   87.29788        4.7605212E-18
   87.42467        4.7608000E-18
   87.55147        4.7607727E-18
   87.67826        4.7603798E-18
   87.80505        4.7595733E-18
   87.93185        4.7583209E-18
   88.05864        4.7566062E-18
   88.18543        4.7544336E-18
   88.31222        4.7518317E-18
   88.43901        4.7488526E-18
   88.56580        4.7455724E-18
   88.69260        4.7420933E-18
   88.81939        4.7385389E-18
   88.94618        4.7350536E-18
   89.07298        4.7317936E-18
   89.19977        4.7289254E-18
   89.32656        4.7266167E-18
   89.45335        4.7250256E-18
   89.58015        4.7242948E-18
   89.70694        4.7245426E-18
   89.83373        4.7258512E-18
   89.96053        4.7282624E-18
   90.08732        4.7317701E-18
   90.21411        4.7363134E-18
   90.34090        4.7417723E-18
   90.46770        4.7479692E-18
   90.59449        4.7546689E-18
   90.72128        4.7615845E-18
   90.84808        4.7683844E-18
   90.97487        4.7747032E-18
   91.10166        4.7801581E-18
   91.22845        4.7843618E-18
   91.35525        4.7869467E-18
   91.48204        4.7875804E-18
   91.60883        4.7859880E-18
   91.73563        4.7819717E-18
   91.86242        4.7754299E-18
   91.98921        4.7663739E-18
   92.11600        4.7549381E-18
   92.24279        4.7413914E-18
   92.36958        4.7261337E-18
   92.49638        4.7096963E-18
   92.62317        4.6927259E-18
   92.74996        4.6759668E-18
   92.87675        4.6602322E-18
   93.00355        4.6463752E-18
   93.13034        4.6352484E-18
   93.25713        4.6276603E-18
   93.38393        4.6243346E-18
   93.51072        4.6258620E-18
   93.63751        4.6326606E-18
   93.76431        4.6449310E-18
   93.89110        4.6626302E-18
   94.01789        4.6854438E-18
   94.14468        4.7127739E-18
   94.27148        4.7437398E-18
   94.39827        4.7771914E-18
   94.52506        4.8117382E-18
   94.65186        4.8457936E-18
   94.77865        4.8776326E-18
   94.90544        4.9054623E-18
   95.03223        4.9275050E-18
   95.15903        4.9420865E-18
   95.28582        4.9477316E-18
   95.41261        4.9432541E-18
   95.53941        4.9278466E-18
   95.66620        4.9011613E-18
   95.79299        4.8633728E-18
   95.91978        4.8152218E-18
   96.04657        4.7580330E-18
   96.17336        4.6937115E-18
   96.30016        4.6247044E-18
   96.42695        4.5539300E-18
   96.55374        4.4846821E-18
   96.68053        4.4205003E-18
   96.80733        4.3650180E-18
   96.93412        4.3217896E-18
   97.06091        4.2941038E-18
   97.18771        4.2847956E-18
   97.31450        4.2960556E-18
   97.44129        4.3292586E-18
   97.56808        4.3848183E-18
   97.69488        4.4620633E-18
   97.82167        4.5591759E-18
   97.94846        4.6731635E-18
   98.07526        4.7999004E-18
   98.20205        4.9342213E-18
   98.32884        5.0700836E-18
   98.45564        5.2007840E-18
   98.58243        5.3192337E-18
   98.70922        5.4182783E-18
   98.83601        5.4910540E-18
   98.96281        5.5313580E-18
   99.08960        5.5340319E-18
   99.21639        5.4953210E-18
   99.34319        5.4131990E-18
   99.46998        5.2876425E-18
   99.59677        5.1208229E-18
   99.72356        4.9172111E-18
   99.85035        4.6835785E-18
   99.97714        4.4288718E-18
   100.1039        4.1639784E-18
   100.2307        3.9013626E-18
   100.3575        3.6545902E-18
   100.4843        3.4377521E-18
   100.6111        3.2648010E-18
   100.7379        3.1488400E-18
   100.8647        3.1013727E-18
   100.9915        3.1315716E-18
   101.1183        3.2455877E-18
   101.2451        3.4459463E-18
   101.3719        3.7310660E-18
   101.4987        4.0949382E-18
   101.6255        4.5269990E-18
   101.7522        5.0122116E-18
   101.8790        5.5313857E-18
   102.0058        6.0617313E-18
   102.1326        6.5776484E-18
   102.2594        7.0517271E-18
   102.3862        7.4559356E-18
   102.5130        7.7629552E-18
   102.6398        7.9476001E-18
   102.7666        7.9882743E-18
   102.8934        7.8683819E-18
   103.0202        7.5776295E-18
   103.1470        7.1131370E-18
   103.2738        6.4802901E-18
   103.4006        5.6932674E-18
   103.5273        4.7751879E-18
   103.6541        3.7578290E-18
   103.7809        2.6809029E-18
   103.9077        1.5908737E-18
   104.0345        5.3934182E-19
   104.1613       -4.1897510E-19
   104.2881       -1.2285923E-18
   104.4149       -1.8358662E-18
   104.5417       -2.1917461E-18
   104.6685       -2.2545533E-18
   104.7953       -1.9926589E-18
   104.9221       -1.3869213E-18
   105.0489       -4.3273881E-19
   105.1756        8.5841190E-19
   105.3024        2.4580590E-18
   105.4292        4.3205637E-18
   105.5560        6.3837358E-18
   105.6828        8.5702934E-18
   105.8096        1.0790162E-17
   105.9364        1.2943580E-17
   106.0632        1.4924924E-17
   106.1900        1.6627138E-17
   106.3168        1.7946593E-17
   106.4436        1.8788216E-17
   106.5704        1.9070624E-17
   106.6972        1.8731050E-17
   106.8240        1.7729814E-17
   106.9507        1.6054070E-17
   107.0775        1.3720614E-17
   107.2043        1.0777544E-17
   107.3311        7.3045987E-18
   107.4579        3.4120532E-18
   107.5847       -7.6187863E-19
   107.7115       -5.0551278E-18
   107.8383       -9.2872787E-18
   107.9651       -1.3266341E-17
   108.0919       -1.6796566E-17
   108.2187       -1.9687024E-17
   108.3455       -2.1760602E-17
   108.4723       -2.2863034E-17
   108.5990       -2.2871537E-17
   108.7258       -2.1702652E-17
   108.8526       -1.9318831E-17
   108.9794       -1.5733422E-17
   109.1062       -1.1013653E-17
   109.2330       -5.2814212E-18
   109.3598        1.2884096E-18
   109.4866        8.4721931E-18
   109.6134        1.6004195E-17
   109.7402        2.3585657E-17
   109.8670        3.0895957E-17
   109.9938        3.7605441E-17
   110.1206        4.3389547E-17
   110.2474        4.7943587E-17
   110.3741        5.0997521E-17
   110.5009        5.2330099E-17
   110.6277        5.1781635E-17