  -7.200000        1.0838613E-17
  -7.073156        1.0838618E-17
  -6.946313        1.0838625E-17
  -6.819469        1.0838636E-17
  -6.692626        1.0838647E-17
  -6.565782        1.0838656E-17
  -6.438938        1.0838663E-17
  -6.312095        1.0838668E-17
  -6.185251        1.0838669E-17
  -6.058407        1.0838668E-17
  -5.931563        1.0838667E-17
  -5.804720        1.0838665E-17
  -5.677876        1.0838667E-17
  -5.551033        1.0838671E-17
  -5.424189        1.0838680E-17
  -5.297346        1.0838692E-17
  -5.170502        1.0838707E-17
  -5.043658        1.0838725E-17
  -4.916814        1.0838742E-17
  -4.789971        1.0838757E-17
  -4.663127        1.0838769E-17
  -4.536283        1.0838777E-17
  -4.409440        1.0838782E-17
  -4.282596        1.0838785E-17
  -4.155753        1.0838786E-17
  -4.028909        1.0838787E-17
  -3.902065        1.0838792E-17
  -3.775222        1.0838799E-17
  -3.648378        1.0838812E-17
  -3.521534        1.0838830E-17
  -3.394691        1.0838853E-17
  -3.267847        1.0838879E-17
  -3.141004        1.0838908E-17
  -3.014160        1.0838939E-17
  -2.887316        1.0838971E-17
  -2.760473        1.0839006E-17
  -2.633629        1.0839042E-17
  -2.506785        1.0839084E-17
  -2.379942        1.0839129E-17
  -2.253098        1.0839183E-17
  -2.126254        1.0839244E-17
  -1.999411        1.0839314E-17
  -1.872567        1.0839393E-17
  -1.745723        1.0839476E-17
  -1.618880        1.0839564E-17
  -1.492036        1.0839652E-17
  -1.365193        1.0839737E-17
  -1.238349        1.0839816E-17
  -1.111505        1.0839886E-17
 -0.9846617        1.0839945E-17
 -0.8578180        1.0839993E-17
 -0.7309744        1.0840029E-17
 -0.6041307        1.0840057E-17
 -0.4772871        1.0840078E-17
 -0.3504435        1.0840094E-17
 -0.2235998        1.0840108E-17
 -9.6756198E-02    1.0840121E-17
  3.0087441E-02    1.0840134E-17
  0.1569311        1.0840147E-17
  0.2837747        1.0840157E-17
  0.4106184        1.0840166E-17
  0.5374620        1.0840169E-17
  0.6643056        1.0840167E-17
  0.7911493        1.0840160E-17
  0.9179929        1.0840147E-17
   1.044837        1.0840127E-17
   1.171680        1.0840106E-17
   1.298524        1.0840082E-17
   1.425367        1.0840059E-17
   1.552211        1.0840038E-17
   1.679055        1.0840022E-17
   1.805898        1.0840009E-17
   1.932742        1.0840000E-17
   2.059586        1.0839993E-17
   2.186429        1.0839986E-17
   2.313273        1.0839978E-17
   2.440117        1.0839965E-17
   2.566960        1.0839948E-17
   2.693804        1.0839926E-17
   2.820647        1.0839898E-17
   2.947491        1.0839870E-17
   3.074335        1.0839840E-17
   3.201178        1.0839814E-17
   3.328022        1.0839792E-17
   3.454866        1.0839774E-17
   3.581709        1.0839765E-17
   3.708553        1.0839762E-17
   3.835397        1.0839765E-17
   3.962240        1.0839772E-17
   4.089084        1.0839780E-17
   4.215928        1.0839788E-17
   4.342771        1.0839797E-17
   4.469615        1.0839803E-17
   4.596458        1.0839809E-17
   4.723302        1.0839815E-17
   4.850146        1.0839823E-17
   4.976989        1.0839834E-17
   5.103833        1.0839849E-17
   5.230677        1.0839868E-17
   5.357520        1.0839889E-17
   5.484364        1.0839913E-17
   5.611207        1.0839937E-17
   5.738051        1.0839958E-17
   5.864895        1.0839973E-17
   5.991738        1.0839979E-17
   6.118582        1.0839977E-17
   6.245426        1.0839965E-17
   6.372270        1.0839947E-17
   6.499113        1.0839923E-17
   6.625957        1.0839898E-17
   6.752800        1.0839872E-17
   6.879644        1.0839849E-17
   7.006487        1.0839831E-17
   7.133331        1.0839820E-17
   7.260175        1.0839814E-17
   7.387019        1.0839813E-17
   7.513862        1.0839816E-17
   7.640706        1.0839821E-17
   7.767550        1.0839826E-17
   7.894393        1.0839831E-17
   8.021236        1.0839836E-17
   8.148081        1.0839840E-17
   8.274924        1.0839844E-17
   8.401768        1.0839850E-17
   8.528611        1.0839857E-17
   8.655455        1.0839869E-17
   8.782298        1.0839882E-17
   8.909142        1.0839899E-17
   9.035986        1.0839919E-17
   9.162829        1.0839940E-17
   9.289673        1.0839960E-17
   9.416516        1.0839980E-17
   9.543361        1.0839999E-17
   9.670204        1.0840017E-17
   9.797048        1.0840034E-17
   9.923891        1.0840051E-17
   10.05073        1.0840070E-17
   10.17758        1.0840090E-17
   10.30442        1.0840113E-17
   10.43127        1.0840137E-17
   10.55811        1.0840161E-17
   10.68495        1.0840184E-17
   10.81180        1.0840204E-17
   10.93864        1.0840218E-17
   11.06548        1.0840228E-17
   11.19233        1.0840228E-17
   11.31917        1.0840223E-17
   11.44602        1.0840212E-17
   11.57286        1.0840198E-17
   11.69970        1.0840182E-17
   11.82655        1.0840168E-17
   11.95339        1.0840157E-17
   12.08023        1.0840151E-17
   12.20708        1.0840149E-17
   12.33392        1.0840152E-17
   12.46076        1.0840158E-17
   12.58761        1.0840166E-17
   12.71445        1.0840175E-17
   12.84130        1.0840185E-17
   12.96814        1.0840192E-17
   13.09498        1.0840200E-17
   13.22183        1.0840209E-17
   13.34867        1.0840218E-17
   13.47551        1.0840231E-17
   13.60236        1.0840248E-17
   13.72920        1.0840270E-17
   13.85604        1.0840295E-17
   13.98289        1.0840323E-17
   14.10973        1.0840352E-17
   14.23658        1.0840382E-17
   14.36342        1.0840410E-17
   14.49026        1.0840433E-17
   14.61711        1.0840451E-17
   14.74395        1.0840464E-17
   14.87079        1.0840473E-17
   14.99764        1.0840480E-17
   15.12448        1.0840485E-17
   15.25132        1.0840491E-17
   15.37817        1.0840497E-17
   15.50501        1.0840507E-17
   15.63186        1.0840520E-17
   15.75870        1.0840534E-17
   15.88554        1.0840548E-17
   16.01239        1.0840562E-17
   16.13923        1.0840574E-17
   16.26607        1.0840584E-17
   16.39292        1.0840591E-17
   16.51976        1.0840596E-17
   16.64660        1.0840601E-17
   16.77345        1.0840606E-17
   16.90029        1.0840612E-17
   17.02714        1.0840624E-17
   17.15398        1.0840639E-17
   17.28082        1.0840659E-17
   17.40767        1.0840683E-17
   17.53451        1.0840707E-17
   17.66135        1.0840733E-17
   17.78820        1.0840757E-17
   17.91504        1.0840777E-17
   18.04188        1.0840794E-17
   18.16873        1.0840807E-17
   18.29557        1.0840818E-17
   18.42241        1.0840829E-17
   18.54926        1.0840841E-17
   18.67610        1.0840860E-17
   18.80295        1.0840883E-17
   18.92979        1.0840914E-17
   19.05663        1.0840953E-17
   19.18348        1.0840998E-17
   19.31032        1.0841045E-17
   19.43716        1.0841092E-17
   19.56401        1.0841136E-17
   19.69085        1.0841173E-17
   19.81770        1.0841201E-17
   19.94454        1.0841219E-17
   20.07138        1.0841229E-17
   20.19823        1.0841230E-17
   20.32507        1.0841226E-17
   20.45191        1.0841218E-17
   20.57876        1.0841209E-17
   20.70560        1.0841201E-17
   20.83245        1.0841197E-17
   20.95929        1.0841195E-17
   21.08613        1.0841195E-17
   21.21297        1.0841199E-17
   21.33982        1.0841202E-17
   21.46666        1.0841206E-17
   21.59351        1.0841209E-17
   21.72035        1.0841210E-17
   21.84719        1.0841210E-17
   21.97404        1.0841210E-17
   22.10088        1.0841210E-17
   22.22772        1.0841210E-17
   22.35457        1.0841212E-17
   22.48141        1.0841214E-17
   22.60826        1.0841219E-17
   22.73510        1.0841226E-17
   22.86194        1.0841233E-17
   22.98879        1.0841240E-17
   23.11563        1.0841247E-17
   23.24247        1.0841254E-17
   23.36932        1.0841262E-17
   23.49616        1.0841269E-17
   23.62300        1.0841278E-17
   23.74985        1.0841289E-17
   23.87669        1.0841303E-17
   24.00353        1.0841320E-17
   24.13038        1.0841343E-17
   24.25722        1.0841368E-17
   24.38407        1.0841396E-17
   24.51091        1.0841427E-17
   24.63775        1.0841458E-17
   24.76460        1.0841487E-17
   24.89144        1.0841512E-17
   25.01828        1.0841533E-17
   25.14513        1.0841546E-17
   25.27197        1.0841554E-17
   25.39882        1.0841557E-17
   25.52566        1.0841555E-17
   25.65250        1.0841551E-17
   25.77935        1.0841549E-17
   25.90619        1.0841549E-17
   26.03303        1.0841557E-17
   26.15988        1.0841573E-17
   26.28672        1.0841597E-17
   26.41356        1.0841631E-17
   26.54041        1.0841672E-17
   26.66725        1.0841718E-17
   26.79410        1.0841768E-17
   26.92094        1.0841816E-17
   27.04778        1.0841860E-17
   27.17463        1.0841897E-17
   27.30147        1.0841925E-17
   27.42831        1.0841941E-17
   27.55516        1.0841949E-17
   27.68200        1.0841948E-17
   27.80884        1.0841941E-17
   27.93569        1.0841929E-17
   28.06253        1.0841918E-17
   28.18937        1.0841910E-17
   28.31622        1.0841908E-17
   28.44306        1.0841913E-17
   28.56991        1.0841927E-17
   28.69675        1.0841949E-17
   28.82359        1.0841978E-17
   28.95044        1.0842013E-17
   29.07728        1.0842049E-17
   29.20412        1.0842085E-17
   29.33097        1.0842119E-17
   29.45781        1.0842147E-17
   29.58466        1.0842168E-17
   29.71150        1.0842181E-17
   29.83834        1.0842185E-17
   29.96519        1.0842182E-17
   30.09203        1.0842175E-17
   30.21887        1.0842165E-17
   30.34572        1.0842155E-17
   30.47256        1.0842147E-17
   30.59941        1.0842141E-17
   30.72625        1.0842139E-17
   30.85309        1.0842139E-17
   30.97993        1.0842140E-17
   31.10678        1.0842138E-17
   31.23362        1.0842133E-17
   31.36047        1.0842121E-17
   31.48731        1.0842103E-17
   31.61415        1.0842079E-17
   31.74100        1.0842054E-17
   31.86784        1.0842035E-17
   31.99468        1.0842032E-17
   32.12153        1.0842053E-17
   32.24837        1.0842108E-17
   32.37521        1.0842204E-17
   32.50206        1.0842342E-17
   32.62890        1.0842519E-17
   32.75574        1.0842725E-17
   32.88259        1.0842942E-17
   33.00943        1.0843148E-17
   33.13628        1.0843319E-17
   33.26312        1.0843430E-17
   33.38997        1.0843464E-17
   33.51681        1.0843406E-17
   33.64365        1.0843254E-17
   33.77050        1.0843021E-17
   33.89734        1.0842726E-17
   34.02418        1.0842397E-17
   34.15103        1.0842068E-17
   34.27787        1.0841769E-17
   34.40471        1.0841526E-17
   34.53156        1.0841351E-17
   34.65840        1.0841246E-17
   34.78524        1.0841200E-17
   34.91209        1.0841193E-17
   35.03893        1.0841204E-17
   35.16578        1.0841215E-17
   35.29262        1.0841229E-17
   35.41946        1.0841267E-17
   35.54631        1.0841377E-17
   35.67315        1.0841630E-17
   35.80000        1.0842110E-17
   35.92684        1.0842907E-17
   36.05368        1.0844084E-17
   36.18052        1.0845665E-17
   36.30737        1.0847609E-17
   36.43421        1.0849795E-17
   36.56105        1.0852008E-17
   36.68790        1.0853958E-17
   36.81474        1.0855288E-17
   36.94159        1.0855621E-17
   37.06843        1.0854606E-17
   37.19527        1.0851974E-17
   37.32212        1.0847600E-17
   37.44896        1.0841554E-17
   37.57581        1.0834135E-17
   37.70265        1.0825884E-17
   37.82949        1.0817563E-17
   37.95634        1.0810100E-17
   38.08318        1.0804510E-17
   38.21002        1.0801783E-17
   38.33687        1.0802764E-17
   38.46371        1.0808026E-17
   38.59055        1.0817770E-17
   38.71740        1.0831737E-17
   38.84424        1.0849179E-17
   38.97108        1.0868884E-17
   39.09793        1.0889237E-17
   39.22477        1.0908361E-17
   39.35162        1.0924268E-17
   39.47846        1.0935066E-17
   39.60530        1.0939148E-17
   39.73215        1.0935369E-17
   39.85899        1.0923202E-17
   39.98583        1.0902812E-17
   40.11268        1.0875089E-17
   40.23952        1.0841602E-17
   40.36636        1.0804489E-17
   40.49321        1.0766307E-17
   40.62005        1.0729835E-17
   40.74689        1.0697876E-17
   40.87374        1.0673060E-17
   41.00058        1.0657677E-17
   41.12743        1.0653540E-17
   41.25427        1.0661903E-17
   41.38111        1.0683398E-17
   41.50796        1.0718014E-17
   41.63480        1.0765091E-17
   41.76165        1.0823312E-17
   41.88849        1.0890696E-17
   42.01533        1.0964571E-17
   42.14218        1.1041560E-17
   42.26902        1.1117552E-17
   42.39586        1.1187734E-17
   42.52271        1.1246666E-17
   42.64955        1.1288454E-17
   42.77639        1.1307040E-17
   42.90324        1.1296615E-17
   43.03008        1.1252149E-17
   43.15693        1.1170030E-17
   43.28377        1.1048742E-17
   43.41061        1.0889523E-17
   43.53746        1.0696935E-17
   43.66430        1.0479229E-17
   43.79114        1.0248449E-17
   43.91799        1.0020181E-17
   44.04483        9.8129164E-18
   44.17167        9.6470146E-18
   44.29852        9.5432861E-18
   44.42536        9.5212881E-18
   44.55220        9.5974251E-18
   44.67905        9.7830213E-18
   44.80589        1.0082518E-17
   44.93274        1.0491988E-17
   45.05958        1.0998124E-17
   45.18642        1.1577864E-17
   45.31327        1.2198753E-17
   45.44011        1.2820087E-17
   45.56696        1.3394886E-17
   45.69380        1.3872571E-17
   45.82064        1.4202287E-17
   45.94748        1.4336661E-17
   46.07433        1.4235768E-17
   46.20117        1.3871084E-17
   46.32801        1.3229114E-17
   46.45486        1.2314413E-17
   46.58170        1.1151759E-17
   46.70855        9.7871729E-18
   46.83539        8.2876367E-18
   46.96223        6.7393196E-18
   47.08908        5.2442564E-18
   47.21592        3.9154933E-18
   47.34277        2.8708066E-18
   47.46961        2.2252259E-18
   47.59645        2.0826981E-18
   47.72330        2.5273263E-18
   47.85014        3.6147367E-18
   47.97698        5.3641740E-18
   48.10383        7.7519868E-18
   48.23067        1.0707158E-17
   48.35751        1.4109486E-17
   48.48436        1.7790918E-17
   48.61120        2.1540408E-17
   48.73804        2.5112423E-17
   48.86489        2.8239033E-17
   48.99173        3.0645205E-17
   49.11858        3.2066669E-17
   49.24542        3.2269457E-17
   49.37226        3.1069973E-17
   49.49911        2.8354233E-17
   49.62595        2.4094932E-17
   49.75279        1.8364763E-17
   49.87964        1.1344698E-17
   50.00648        3.3259762E-18
   50.13332       -5.2951028E-18
   50.26017       -1.4030166E-17
   50.38701       -2.2319598E-17
   50.51385       -2.9560825E-17
   50.64070       -3.5143076E-17
   50.76754       -3.8487096E-17
   50.89439       -3.9087732E-17
   51.02123       -3.6556893E-17
   51.14808       -3.0664035E-17
   51.27492       -2.1371007E-17
   51.40176       -8.8582515E-18
   51.52861        6.4606061E-18
   51.65545        2.3938210E-17
   51.78229        4.2708807E-17
   51.90914        6.1720313E-17
   52.03598        7.9782953E-17
   52.16282        9.5633004E-17
   52.28967        1.0800896E-16
   52.41651        1.1573617E-16
   52.54335        1.1781477E-16
   52.67020        1.1350515E-16
   52.79704        1.0240458E-16
   52.92389        8.4508298E-17
   53.05073        6.0249626E-17
   53.17757        3.0513647E-17
   53.30442       -3.3786595E-18
   53.43126       -3.9717570E-17
   53.55810       -7.6482390E-17
   53.68495       -1.1144696E-16
   53.81179       -1.4230765E-16
   53.93863       -1.6682681E-16
   54.06548       -1.8298253E-16
   54.19232       -1.8911525E-16
   54.31916       -1.8406072E-16
   54.44601       -1.6725955E-16
   54.57285       -1.3883466E-16
   54.69970       -9.9629670E-17
   54.82654       -5.1203360E-17
   54.95338        4.2215518E-18
   55.08023        6.3854538E-17
   55.20707        1.2447451E-16
   55.33392        1.8260162E-16
   55.46076        2.3469483E-16
   55.58760        2.7736451E-16
   55.71444        3.0758773E-16
   55.84129        3.2291374E-16
   55.96813        3.2164660E-16
   56.09497        3.0299276E-16
   56.22182        2.6716269E-16
   56.34866        2.1541718E-16
   56.47551        1.5005202E-16
   56.60235        7.4317096E-17
   56.72919       -7.7299904E-18
   56.85604       -9.1432052E-17
   56.98288       -1.7179447E-16
   57.10973       -2.4378900E-16
   57.23657       -3.0268323E-16
   57.36341       -3.4437599E-16
   57.49026       -3.6571664E-16
   57.61710       -3.6478392E-16
   57.74394       -3.4110096E-16
   57.87079       -2.9576479E-16
   57.99763       -2.3147153E-16
   58.12447       -1.5242558E-16
   58.25132       -6.4127991E-17
   58.37816        2.6952291E-17
   58.50500        1.1380993E-16
   58.63185        1.8941416E-16
   58.75869        2.4726647E-16
   58.88554        2.8196549E-16
   59.01238        2.8973429E-16
   59.13923        2.6886448E-16
   59.26607        2.2003355E-16
   59.39291        1.4645767E-16
   59.51975        5.3853018E-17
   59.64660       -4.9809766E-17
   59.77344       -1.5475648E-16
   59.90028       -2.5004921E-16
   60.02713       -3.2438127E-16
   60.15397       -3.6697885E-16
   60.28082       -3.6854944E-16
   60.40766       -3.2220771E-16
   60.53450       -2.2430703E-16
   60.66135       -7.5105875E-17
   60.78819        1.2079505E-16
   60.91504        3.5429691E-16
   61.04188        6.1196399E-16
   61.16872        8.7651880E-16
   61.29557        1.1276675E-15
   61.42241        1.3432259E-15
   61.54925        1.5004997E-15
   61.67610        1.5778461E-15
   61.80294        1.5563337E-15
   61.92978        1.4213960E-15
   62.05663        1.1643738E-15
   62.18347        7.8383164E-16
   62.31031        2.8654206E-16
   62.43716       -3.1196051E-16
   62.56400       -9.8733898E-16
   62.69085       -1.7069812E-15
   62.81769       -2.4311266E-15
   62.94453       -3.1145842E-15
   63.07138       -3.7089993E-15
   63.19822       -4.1655789E-15
   63.32506       -4.4381613E-15
   63.45191       -4.4864587E-15
   63.57875       -4.2792846E-15
   63.70559       -3.7975604E-15
   63.83244       -3.0368657E-15
   63.95928       -2.0093294E-15
   64.08613       -7.4465705E-16
   64.21297        7.0986141E-16
   64.33981        2.2904705E-15
   64.46666        3.9192308E-15
   64.59350        5.5074311E-15
   64.72034        6.9600142E-15
   64.84719        8.1808136E-15
   64.97403        9.0783323E-15
   65.10088        9.5717315E-15
   65.22771        9.5966537E-15
   65.35456        9.1104873E-15
   65.48141        8.0966761E-15
   65.60825        6.5677507E-15
   65.73509        4.5667574E-15
   65.86194        2.1669146E-15
   65.98878       -5.3061590E-16
   66.11562       -3.4008095E-15
   66.24247       -6.3005711E-15
   66.36931       -9.0759673E-15
   66.49615       -1.1570528E-14
   66.62300       -1.3634157E-14
   66.74984       -1.5132132E-14
   66.87669       -1.5953642E-14
   67.00353       -1.6019307E-14
   67.13037       -1.5287220E-14
   67.25722       -1.3757014E-14
   67.38406       -1.1471684E-14
   67.51090       -8.5169493E-15
   67.63775       -5.0180747E-15
   67.76459       -1.1342866E-15
   67.89143        2.9490062E-15
   68.01828        7.0297818E-15
   68.14512        1.0900255E-14
   68.27197        1.4358421E-14
   68.39881        1.7219599E-14
   68.52565        1.9327311E-14
   68.65250        2.0562792E-14
   68.77934        2.0852525E-14
   68.90618        2.0173291E-14
   69.03303        1.8554314E-14
   69.15987        1.6076318E-14
   69.28671        1.2867416E-14
   69.41356        9.0960369E-15
   69.54041        4.9612058E-15
   69.66724        6.8073777E-16
   69.79409       -3.5219634E-15
   69.92093       -7.4316968E-15
   70.04778       -1.0854953E-14
   70.17462       -1.3632215E-14
   70.30146       -1.5648207E-14
   70.42831       -1.6839344E-14
   70.55515       -1.7197803E-14
   70.68199       -1.6771825E-14
   70.80884       -1.5662069E-14
   70.93568       -1.4014214E-14
   71.06252       -1.2008098E-14
   71.18937       -9.8440797E-15
   71.31622       -7.7274646E-15
   71.44305       -5.8519952E-15
   71.56990       -4.3835336E-15
   71.69675       -3.4451371E-15
   71.82359       -3.1046129E-15
   71.95043       -3.3656109E-15
   72.07728       -4.1630619E-15
   72.20412       -5.3635943E-15
   72.33096       -6.7711958E-15
   72.45780       -8.1381138E-15
   72.58465       -9.1806013E-15
   72.71149       -9.5987993E-15
   72.83833       -9.0997190E-15
   72.96518       -7.4219805E-15
   73.09203       -4.3607962E-15
   73.21886        2.0850134E-16
   73.34571        6.3100808E-15
   73.47256        1.3852063E-14
   73.59940        2.2617345E-14
   73.72624        3.2261909E-14
   73.85309        4.2321642E-14
   73.97993        5.2227855E-14
   74.10677        6.1331521E-14
   74.23362        6.8935431E-14
   74.36046        7.4332942E-14
   74.48730        7.6851509E-14
   74.61415        7.5898672E-14
   74.74099        7.1007653E-14
   74.86784        6.1879802E-14
   74.99467        4.8420706E-14
   75.12152        3.0767255E-14
   75.24837        9.3030721E-15
   75.37521       -1.5339562E-14
   75.50205       -4.2292606E-14
   75.62890       -7.0480189E-14
   75.75574       -9.8661056E-14
   75.88258       -1.2548392E-13
   76.00943       -1.4955311E-13
   76.13627       -1.6950123E-13
   76.26311       -1.8406470E-13
   76.38996       -1.9215780E-13
   76.51680       -1.9294063E-13
   76.64365       -1.8587651E-13
   76.77049       -1.7077485E-13
   76.89733       -1.4781648E-13
   77.02418       -1.1755884E-13
   77.15102       -8.0920412E-14
   77.27786       -3.9144364E-14
   77.40471        6.2568820E-15
   77.53155        5.3573330E-14
   77.65839        1.0098149E-13
   77.78524        1.4663590E-13
   77.91208        1.8876274E-13
   78.03893        2.2574985E-13
   78.16577        2.5622741E-13
   78.29261        2.7913438E-13
   78.41946        2.9376604E-13
   78.54630        2.9979976E-13
   78.67314        2.9729658E-13
   78.79999        2.8667897E-13
   78.92683        2.6868509E-13
   79.05367        2.4430317E-13
   79.18052        2.1468978E-13
   79.30737        1.8107767E-13
   79.43420        1.4467954E-13
   79.56105        1.0659501E-13
   79.68790        6.7727467E-14
   79.81474        2.8718242E-14
   79.94158       -1.0096745E-14
   80.06842       -4.8702582E-14
   80.19527       -8.7390571E-14
   80.32211       -1.2671214E-13
   80.44895       -1.6740274E-13
   80.57580       -2.1027933E-13
   80.70264       -2.5611737E-13
   80.82948       -3.0551503E-13
   80.95633       -3.5875415E-13
   81.08318       -4.1566810E-13
   81.21001       -4.7552739E-13
   81.33686       -5.3695384E-13
   81.46371       -5.9787185E-13
   81.59055       -6.5550560E-13
   81.71739       -7.0642618E-13
   81.84424       -7.4665187E-13
   81.97108       -7.7180086E-13
   82.09792       -7.7729094E-13
   82.22476       -7.5858048E-13
   82.35161       -7.1143921E-13
   82.47845       -6.3223542E-13
   82.60529       -5.1822679E-13
   82.73214       -3.6783640E-13
   82.85899       -1.8089976E-13
   82.98582        4.1133509E-14
   83.11267        2.9505714E-13
   83.23952        5.7583658E-13
   83.36636        8.7661730E-13
   83.49320        1.1888184E-12
   83.62005        1.5023131E-12
   83.74689        1.8056945E-12
   83.87373        2.0866195E-12
   84.00058        2.3322223E-12
   84.12742        2.5295833E-12
   84.25426        2.6662359E-12
   84.38111        2.7306965E-12
   84.50795        2.7129917E-12
   84.63480        2.6051674E-12
   84.76163        2.4017518E-12
   84.88848        2.1001571E-12
   85.01533        1.7009985E-12
   85.14217        1.2083110E-12
   85.26901        6.2965589E-13
   85.39586       -2.3898745E-14
   85.52270       -7.3792383E-13
   85.64954       -1.4949049E-12
   85.77639       -2.2746401E-12
   85.90323       -3.0547544E-12
   86.03008       -3.8113085E-12
   86.15692       -4.5194911E-12
   86.28376       -5.1543630E-12
   86.41061       -5.6916368E-12
   86.53745       -6.1084527E-12
   86.66429       -6.3841380E-12
   86.79114       -6.5009105E-12
   86.91798       -6.4445103E-12
   87.04482       -6.2047394E-12
   87.17167       -5.7758858E-12
   87.29851       -5.1570345E-12
   87.42535       -4.3522464E-12
   87.55220       -3.3706139E-12
   87.67904       -2.2261969E-12
   87.80589       -9.3784041E-13
   87.93273        4.7110541E-13
   88.05957        1.9731573E-12
   88.18642        3.5371445E-12
   88.31326        5.1287230E-12
   88.44010        6.7109400E-12
   88.56695        8.2448458E-12
   88.69379        9.6901480E-12
   88.82063        1.1005907E-11
   88.94748        1.2151263E-11
   89.07433        1.3086221E-11
   89.20116        1.3772465E-11
   89.32801        1.4174228E-11
   89.45486        1.4259207E-11
   89.58170        1.3999513E-11
   89.70854        1.3372668E-11
   89.83538        1.2362599E-11
   89.96223        1.0960645E-11
   90.08907        9.1665252E-12
   90.21591        6.9892317E-12
   90.34276        4.4478271E-12
   90.46960        1.5720842E-12
   90.59644       -1.5970720E-12
   90.72329       -5.0073647E-12
   90.85014       -8.5952573E-12
   90.97697       -1.2286369E-11
   91.10382       -1.5996260E-11
   91.23067       -1.9631593E-11
   91.35751       -2.3091711E-11
   91.48435       -2.6270593E-11
   91.61120       -2.9059219E-11
   91.73804       -3.1348268E-11
   91.86488       -3.3031151E-11
   91.99173       -3.4007269E-11
   92.11857       -3.4185467E-11
   92.24541       -3.3487553E-11
   92.37225       -3.1851792E-11
   92.49910       -2.9236284E-11
   92.62595       -2.5622043E-11
   92.75278       -2.1015759E-11
   92.87963       -1.5451989E-11
   93.00648       -8.9947667E-12
   93.13332       -1.7384667E-12
   93.26016        6.1921492E-12
   93.38701        1.4642803E-11
   93.51385        2.3431493E-11
   93.64069        3.2351281E-11
   93.76754        4.1174036E-11
   93.89438        4.9655134E-11
   94.02122        5.7538974E-11
   94.14807        6.4565277E-11
   94.27491        7.0476042E-11
   94.40176        7.5022877E-11
   94.52859        7.7974724E-11
   94.65544        7.9125546E-11
   94.78229        7.8301921E-11
   94.90913        7.5370252E-11
   95.03597        7.0243353E-11
   95.16282        6.2886203E-11
   95.28966        5.3320660E-11
   95.41650        4.1628884E-11
   95.54335        2.7955391E-11
   95.67019        1.2507488E-11
   95.79704       -4.4459293E-12
   95.92388       -2.2577318E-11
   96.05072       -4.1505254E-11
   96.17757       -6.0800906E-11
   96.30441       -7.9996156E-11
   96.43125       -9.8593342E-11
   96.55810       -1.1607634E-10
   96.68494       -1.3192282E-10
   96.81178       -1.4561739E-10
   96.93863       -1.5666542E-10
   97.06547       -1.6460704E-10
   97.19231       -1.6903105E-10
   97.31916       -1.6958847E-10
   97.44600       -1.6600506E-10
   97.57285       -1.5809265E-10
   97.69969       -1.4575900E-10
   97.82653       -1.2901542E-10
   97.95338       -1.0798245E-10
   98.08022       -8.2892755E-11
   98.20706       -5.4091502E-11
   98.33391       -2.2033776E-11
   98.46075        1.2720781E-11
   98.58759        4.9516276E-11
   98.71444        8.7611564E-11
   98.84129        1.2619385E-10
   98.96812        1.6439461E-10
   99.09497        2.0130747E-10
   99.22182        2.3600774E-10
   99.34866        2.6757305E-10
   99.47550        2.9510469E-10
   99.60234        3.1774922E-10
   99.72919        3.3471970E-10
   99.85603        3.4531594E-10
   99.98287        3.4894360E-10
   100.1097        3.4513140E-10
   100.2366        3.3354602E-10
   100.3634        3.1400438E-10
   100.4902        2.8648289E-10
   100.6171        2.5112368E-10
   100.7439        2.0823711E-10
   100.8708        1.5830119E-10
   100.9976        1.0195710E-10
   101.1245        4.0001655E-11
   101.2513       -2.6623674E-11
   101.3782       -9.6846579E-11
   101.5050       -1.6948060E-10
   101.6318       -2.4324398E-10
   101.7587       -3.1678046E-10
   101.8855       -3.8868159E-10
   102.0124       -4.5750997E-10
   102.1392       -5.2182320E-10
   102.2661       -5.8019783E-10
   102.3929       -6.3125333E-10
   102.5197       -6.7367517E-10
   102.6466       -7.0623740E-10
   102.7734       -7.2782363E-10
   102.9003       -7.3744738E-10
   103.0271       -7.3427026E-10
   103.1540       -7.1761924E-10
   103.2808       -6.8700173E-10
   103.4077       -6.4211902E-10
   103.5345       -5.8287836E-10
   103.6613       -5.0940224E-10
   103.7882       -4.2203652E-10
   103.9150       -3.2135555E-10
   104.0419       -2.0816560E-10
   104.1687       -8.3505244E-11
   104.2956        5.1356773E-11
   104.4224        1.9492678E-10
   104.5492        3.4549458E-10
   104.6761        5.0114513E-10
   104.8029        6.5977357E-10
   104.9298        8.1910434E-10
   105.0566        9.7671315E-10
   105.1835        1.1300524E-09
   105.3103        1.2764804E-09
   105.4371        1.4132930E-09
   105.5640        1.5377580E-09
   105.6908        1.6471516E-09
   105.8177        1.7387961E-09
   105.9445        1.8100995E-09
   106.0714        1.8585945E-09
   106.1982        1.8819784E-09
   106.3251        1.8781496E-09
   106.4519        1.8452471E-09
   106.5787        1.7816820E-09
   106.7056        1.6861724E-09
   106.8324        1.5577704E-09
   106.9593        1.3958885E-09
   107.0861        1.2003223E-09
   107.2130        9.7126773E-10
   107.3398        7.0933620E-10
   107.4667        4.1556486E-10
   107.5935        9.1425402E-11
   107.7203       -2.6117319E-10
   107.8472       -6.3988209E-10
   107.9740       -1.0419141E-09