  -7.200000       -2.0450126E-18
  -7.073156       -2.0450014E-18
  -6.946313       -2.0449801E-18
  -6.819469       -2.0449491E-18
  -6.692626       -2.0449110E-18
  -6.565782       -2.0448670E-18
  -6.438938       -2.0448200E-18
  -6.312095       -2.0447725E-18
  -6.185251       -2.0447268E-18
  -6.058407       -2.0446846E-18
  -5.931563       -2.0446484E-18
  -5.804720       -2.0446190E-18
  -5.677876       -2.0445975E-18
  -5.551033       -2.0445847E-18
  -5.424189       -2.0445802E-18
  -5.297346       -2.0445826E-18
  -5.170502       -2.0445913E-18
  -5.043658       -2.0446039E-18
  -4.916814       -2.0446186E-18
  -4.789971       -2.0446331E-18
  -4.663127       -2.0446445E-18
  -4.536283       -2.0446505E-18
  -4.409440       -2.0446488E-18
  -4.282596       -2.0446377E-18
  -4.155753       -2.0446164E-18
  -4.028909       -2.0445841E-18
  -3.902065       -2.0445423E-18
  -3.775222       -2.0444919E-18
  -3.648378       -2.0444352E-18
  -3.521534       -2.0443750E-18
  -3.394691       -2.0443142E-18
  -3.267847       -2.0442567E-18
  -3.141004       -2.0442067E-18
  -3.014160       -2.0441662E-18
  -2.887316       -2.0441378E-18
  -2.760473       -2.0441227E-18
  -2.633629       -2.0441217E-18
  -2.506785       -2.0441347E-18
  -2.379942       -2.0441600E-18
  -2.253098       -2.0441957E-18
  -2.126254       -2.0442385E-18
  -1.999411       -2.0442834E-18
  -1.872567       -2.0443266E-18
  -1.745723       -2.0443634E-18
  -1.618880       -2.0443889E-18
  -1.492036       -2.0443984E-18
  -1.365193       -2.0443881E-18
  -1.238349       -2.0443558E-18
  -1.111505       -2.0442997E-18
 -0.9846617       -2.0442203E-18
 -0.8578180       -2.0441198E-18
 -0.7309744       -2.0440011E-18
 -0.6041307       -2.0438690E-18
 -0.4772871       -2.0437296E-18
 -0.3504435       -2.0435906E-18
 -0.2235998       -2.0434589E-18
 -9.6756198E-02   -2.0433427E-18
  3.0087441E-02   -2.0432484E-18
  0.1569311       -2.0431816E-18
  0.2837747       -2.0431479E-18
  0.4106184       -2.0431498E-18
  0.5374620       -2.0431878E-18
  0.6643056       -2.0432608E-18
  0.7911493       -2.0433654E-18
  0.9179929       -2.0434964E-18
   1.044837       -2.0436469E-18
   1.171680       -2.0438084E-18
   1.298524       -2.0439720E-18
   1.425367       -2.0441298E-18
   1.552211       -2.0442727E-18
   1.679055       -2.0443947E-18
   1.805898       -2.0444896E-18
   1.932742       -2.0445541E-18
   2.059586       -2.0445866E-18
   2.186429       -2.0445882E-18
   2.313273       -2.0445616E-18
   2.440117       -2.0445109E-18
   2.566960       -2.0444410E-18
   2.693804       -2.0443593E-18
   2.820647       -2.0442720E-18
   2.947491       -2.0441854E-18
   3.074335       -2.0441043E-18
   3.201178       -2.0440338E-18
   3.328022       -2.0439757E-18
   3.454866       -2.0439323E-18
   3.581709       -2.0439039E-18
   3.708553       -2.0438897E-18
   3.835397       -2.0438880E-18
   3.962240       -2.0438959E-18
   4.089084       -2.0439114E-18
   4.215928       -2.0439314E-18
   4.342771       -2.0439536E-18
   4.469615       -2.0439759E-18
   4.596458       -2.0439953E-18
   4.723302       -2.0440117E-18
   4.850146       -2.0440235E-18
   4.976989       -2.0440307E-18
   5.103833       -2.0440338E-18
   5.230677       -2.0440338E-18
   5.357520       -2.0440322E-18
   5.484364       -2.0440301E-18
   5.611207       -2.0440299E-18
   5.738051       -2.0440324E-18
   5.864895       -2.0440379E-18
   5.991738       -2.0440491E-18
   6.118582       -2.0440652E-18
   6.245426       -2.0440870E-18
   6.372270       -2.0441138E-18
   6.499113       -2.0441455E-18
   6.625957       -2.0441815E-18
   6.752800       -2.0442214E-18
   6.879644       -2.0442644E-18
   7.006487       -2.0443093E-18
   7.133331       -2.0443546E-18
   7.260175       -2.0443988E-18
   7.387019       -2.0444404E-18
   7.513862       -2.0444766E-18
   7.640706       -2.0445065E-18
   7.767550       -2.0445281E-18
   7.894393       -2.0445398E-18
   8.021236       -2.0445411E-18
   8.148081       -2.0445312E-18
   8.274924       -2.0445111E-18
   8.401768       -2.0444819E-18
   8.528611       -2.0444451E-18
   8.655455       -2.0444029E-18
   8.782298       -2.0443589E-18
   8.909142       -2.0443155E-18
   9.035986       -2.0442753E-18
   9.162829       -2.0442408E-18
   9.289673       -2.0442137E-18
   9.416516       -2.0441970E-18
   9.543361       -2.0441906E-18
   9.670204       -2.0441955E-18
   9.797048       -2.0442119E-18
   9.923891       -2.0442385E-18
   10.05073       -2.0442753E-18
   10.17758       -2.0443200E-18
   10.30442       -2.0443717E-18
   10.43127       -2.0444282E-18
   10.55811       -2.0444867E-18
   10.68495       -2.0445454E-18
   10.81180       -2.0446017E-18
   10.93864       -2.0446546E-18
   11.06548       -2.0447016E-18
   11.19233       -2.0447406E-18
   11.31917       -2.0447712E-18
   11.44602       -2.0447915E-18
   11.57286       -2.0448023E-18
   11.69970       -2.0448037E-18
   11.82655       -2.0447971E-18
   11.95339       -2.0447836E-18
   12.08023       -2.0447650E-18
   12.20708       -2.0447429E-18
   12.33392       -2.0447206E-18
   12.46076       -2.0446993E-18
   12.58761       -2.0446813E-18
   12.71445       -2.0446681E-18
   12.84130       -2.0446616E-18
   12.96814       -2.0446625E-18
   13.09498       -2.0446712E-18
   13.22183       -2.0446871E-18
   13.34867       -2.0447094E-18
   13.47551       -2.0447371E-18
   13.60236       -2.0447681E-18
   13.72920       -2.0447998E-18
   13.85604       -2.0448308E-18
   13.98289       -2.0448579E-18
   14.10973       -2.0448786E-18
   14.23658       -2.0448910E-18
   14.36342       -2.0448949E-18
   14.49026       -2.0448895E-18
   14.61711       -2.0448748E-18
   14.74395       -2.0448517E-18
   14.87079       -2.0448223E-18
   14.99764       -2.0447884E-18
   15.12448       -2.0447526E-18
   15.25132       -2.0447173E-18
   15.37817       -2.0446856E-18
   15.50501       -2.0446592E-18
   15.63186       -2.0446401E-18
   15.75870       -2.0446302E-18
   15.88554       -2.0446292E-18
   16.01239       -2.0446374E-18
   16.13923       -2.0446546E-18
   16.26607       -2.0446792E-18
   16.39292       -2.0447109E-18
   16.51976       -2.0447475E-18
   16.64660       -2.0447868E-18
   16.77345       -2.0448269E-18
   16.90029       -2.0448655E-18
   17.02714       -2.0449017E-18
   17.15398       -2.0449340E-18
   17.28082       -2.0449605E-18
   17.40767       -2.0449805E-18
   17.53451       -2.0449942E-18
   17.66135       -2.0450006E-18
   17.78820       -2.0450002E-18
   17.91504       -2.0449931E-18
   18.04188       -2.0449805E-18
   18.16873       -2.0449627E-18
   18.29557       -2.0449414E-18
   18.42241       -2.0449183E-18
   18.54926       -2.0448943E-18
   18.67610       -2.0448715E-18
   18.80295       -2.0448519E-18
   18.92979       -2.0448366E-18
   19.05663       -2.0448275E-18
   19.18348       -2.0448244E-18
   19.31032       -2.0448287E-18
   19.43716       -2.0448407E-18
   19.56401       -2.0448589E-18
   19.69085       -2.0448825E-18
   19.81770       -2.0449102E-18
   19.94454       -2.0449408E-18
   20.07138       -2.0449720E-18
   20.19823       -2.0450018E-18
   20.32507       -2.0450281E-18
   20.45191       -2.0450492E-18
   20.57876       -2.0450630E-18
   20.70560       -2.0450694E-18
   20.83245       -2.0450674E-18
   20.95929       -2.0450581E-18
   21.08613       -2.0450415E-18
   21.21297       -2.0450198E-18
   21.33982       -2.0449944E-18
   21.46666       -2.0449681E-18
   21.59351       -2.0449433E-18
   21.72035       -2.0449226E-18
   21.84719       -2.0449079E-18
   21.97404       -2.0449015E-18
   22.10088       -2.0449046E-18
   22.22772       -2.0449179E-18
   22.35457       -2.0449412E-18
   22.48141       -2.0449735E-18
   22.60826       -2.0450136E-18
   22.73510       -2.0450597E-18
   22.86194       -2.0451087E-18
   22.98879       -2.0451582E-18
   23.11563       -2.0452041E-18
   23.24247       -2.0452448E-18
   23.36932       -2.0452783E-18
   23.49616       -2.0453025E-18
   23.62300       -2.0453170E-18
   23.74985       -2.0453219E-18
   23.87669       -2.0453170E-18
   24.00353       -2.0453039E-18
   24.13038       -2.0452845E-18
   24.25722       -2.0452601E-18
   24.38407       -2.0452324E-18
   24.51091       -2.0452043E-18
   24.63775       -2.0451776E-18
   24.76460       -2.0451544E-18
   24.89144       -2.0451362E-18
   25.01828       -2.0451244E-18
   25.14513       -2.0451201E-18
   25.27197       -2.0451226E-18
   25.39882       -2.0451331E-18
   25.52566       -2.0451505E-18
   25.65250       -2.0451737E-18
   25.77935       -2.0452008E-18
   25.90619       -2.0452301E-18
   26.03303       -2.0452597E-18
   26.15988       -2.0452874E-18
   26.28672       -2.0453106E-18
   26.41356       -2.0453273E-18
   26.54041       -2.0453360E-18
   26.66725       -2.0453354E-18
   26.79410       -2.0453257E-18
   26.92094       -2.0453062E-18
   27.04778       -2.0452787E-18
   27.17463       -2.0452454E-18
   27.30147       -2.0452076E-18
   27.42831       -2.0451695E-18
   27.55516       -2.0451340E-18
   27.68200       -2.0451042E-18
   27.80884       -2.0450827E-18
   27.93569       -2.0450732E-18
   28.06253       -2.0450767E-18
   28.18937       -2.0450936E-18
   28.31622       -2.0451244E-18
   28.44306       -2.0451677E-18
   28.56991       -2.0452208E-18
   28.69675       -2.0452806E-18
   28.82359       -2.0453441E-18
   28.95044       -2.0454061E-18
   29.07728       -2.0454640E-18
   29.20412       -2.0455136E-18
   29.33097       -2.0455523E-18
   29.45781       -2.0455780E-18
   29.58466       -2.0455904E-18
   29.71150       -2.0455887E-18
   29.83834       -2.0455753E-18
   29.96519       -2.0455504E-18
   30.09203       -2.0455178E-18
   30.21887       -2.0454799E-18
   30.34572       -2.0454396E-18
   30.47256       -2.0453995E-18
   30.59941       -2.0453621E-18
   30.72625       -2.0453294E-18
   30.85309       -2.0453027E-18
   30.97993       -2.0452837E-18
   31.10678       -2.0452727E-18
   31.23362       -2.0452707E-18
   31.36047       -2.0452771E-18
   31.48731       -2.0452917E-18
   31.61415       -2.0453141E-18
   31.74100       -2.0453439E-18
   31.86784       -2.0453792E-18
   31.99468       -2.0454187E-18
   32.12153       -2.0454595E-18
   32.24837       -2.0454987E-18
   32.37521       -2.0455351E-18
   32.50206       -2.0455655E-18
   32.62890       -2.0455879E-18
   32.75574       -2.0456007E-18
   32.88259       -2.0456042E-18
   33.00943       -2.0455990E-18
   33.13628       -2.0455870E-18
   33.26312       -2.0455722E-18
   33.38997       -2.0455573E-18
   33.51681       -2.0455459E-18
   33.64365       -2.0455409E-18
   33.77050       -2.0455430E-18
   33.89734       -2.0455509E-18
   34.02418       -2.0455620E-18
   34.15103       -2.0455707E-18
   34.27787       -2.0455709E-18
   34.40471       -2.0455562E-18
   34.53156       -2.0455209E-18
   34.65840       -2.0454640E-18
   34.78524       -2.0453875E-18
   34.91209       -2.0452988E-18
   35.03893       -2.0452121E-18
   35.16578       -2.0451441E-18
   35.29262       -2.0451149E-18
   35.41946       -2.0451449E-18
   35.54631       -2.0452500E-18
   35.67315       -2.0454390E-18
   35.80000       -2.0457107E-18
   35.92684       -2.0460517E-18
   36.05368       -2.0464362E-18
   36.18052       -2.0468272E-18
   36.30737       -2.0471800E-18
   36.43421       -2.0474484E-18
   36.56105       -2.0475890E-18
   36.68790       -2.0475700E-18
   36.81474       -2.0473756E-18
   36.94159       -2.0470110E-18
   37.06843       -2.0465036E-18
   37.19527       -2.0458995E-18
   37.32212       -2.0452572E-18
   37.44896       -2.0446418E-18
   37.57581       -2.0441105E-18
   37.70265       -2.0437031E-18
   37.82949       -2.0434341E-18
   37.95634       -2.0432850E-18
   38.08318       -2.0432062E-18
   38.21002       -2.0431235E-18
   38.33687       -2.0429517E-18
   38.46371       -2.0426135E-18
   38.59055       -2.0420639E-18
   38.71740       -2.0413080E-18
   38.84424       -2.0404248E-18
   38.97108       -2.0395722E-18
   39.09793       -2.0389847E-18
   39.22477       -2.0389566E-18
   39.35162       -2.0398113E-18
   39.47846       -2.0418521E-18
   39.60530       -2.0453091E-18
   39.73215       -2.0502788E-18
   39.85899       -2.0566740E-18
   39.98583       -2.0641812E-18
   40.11268       -2.0722463E-18
   40.23952       -2.0800859E-18
   40.36636       -2.0867323E-18
   40.49321       -2.0911122E-18
   40.62005       -2.0921513E-18
   40.74689       -2.0889015E-18
   40.87374       -2.0806746E-18
   41.00058       -2.0671663E-18
   41.12743       -2.0485556E-18
   41.25427       -2.0255687E-18
   41.38111       -1.9994881E-18
   41.50796       -1.9721053E-18
   41.63480       -1.9456150E-18
   41.76165       -1.9224571E-18
   41.88849       -1.9051167E-18
   42.01533       -1.8959069E-18
   42.14218       -1.8967467E-18
   42.26902       -1.9089647E-18
   42.39586       -1.9331430E-18
   42.52271       -1.9690199E-18
   42.64955       -2.0154651E-18
   42.77639       -2.0705193E-18
   42.90324       -2.1315013E-18
   43.03008       -2.1951632E-18
   43.15693       -2.2578821E-18
   43.28377       -2.3158569E-18
   43.41061       -2.3653027E-18
   43.53746       -2.4026216E-18
   43.66430       -2.4245390E-18
   43.79114       -2.4282108E-18
   43.91799       -2.4113049E-18
   44.04483       -2.3720688E-18
   44.17167       -2.3094097E-18
   44.29852       -2.2229966E-18
   44.42536       -2.1134006E-18
   44.55220       -1.9822786E-18
   44.67905       -1.8325909E-18
   44.80589       -1.6688302E-18
   44.93274       -1.4972278E-18
   45.05958       -1.3258865E-18
   45.18642       -1.1647864E-18
   45.31327       -1.0256170E-18
   45.44011       -9.2138108E-19
   45.56696       -8.6574698E-19
   45.69380       -8.7215360E-19
   45.82064       -9.5268542E-19
   45.94748       -1.1167836E-18
   46.07433       -1.3698907E-18
   46.20117       -1.7121391E-18
   46.32801       -2.1372273E-18
   46.45486       -2.6316323E-18
   46.58170       -3.1742847E-18
   46.70855       -3.7368236E-18
   46.83539       -4.2845065E-18
   46.96223       -4.7777940E-18
   47.08908       -5.1745756E-18
   47.21592       -5.4329392E-18
   47.34277       -5.5143230E-18
   47.46961       -5.3868512E-18
   47.59645       -5.0285902E-18
   47.72330       -4.4304699E-18
   47.85014       -3.5985980E-18
   47.97698       -2.5557226E-18
   48.10383       -1.3416434E-18
   48.23067       -1.2437323E-20
   48.35751        1.3615582E-18
   48.48436        2.6989725E-18
   48.61120        3.9117156E-18
   48.73804        4.9101636E-18
   48.86489        5.6089277E-18
   48.99173        5.9328529E-18
   49.11858        5.8228527E-18
   49.24542        5.2411801E-18
   49.37226        4.1757339E-18
   49.49911        2.6430480E-18
   49.62595        6.8966794E-19
   49.75279       -1.6082683E-18
   49.87964       -4.1473674E-18
   50.00648       -6.8012010E-18
   50.13332       -9.4262789E-18
   50.26017       -1.1869517E-17
   50.38701       -1.3976831E-17
   50.51385       -1.5602406E-17
   50.64070       -1.6618120E-17
   50.76754       -1.6922534E-17
   50.89439       -1.6448897E-17
   51.02123       -1.5171571E-17
   51.14808       -1.3110410E-17
   51.27492       -1.0332618E-17
   51.40176       -6.9518252E-18
   51.52861       -3.1241863E-18
   51.65545        9.5848613E-19
   51.78229        5.0783827E-18
   51.90914        9.0037956E-18
   52.03598        1.2503071E-17
   52.16282        1.5359727E-17
   52.28967        1.7387781E-17
   52.41651        1.8446331E-17
   52.54335        1.8452254E-17
   52.67020        1.7389889E-17
   52.79704        1.5316745E-17
   52.92389        1.2364195E-17
   53.05073        8.7326624E-18
   53.17757        4.6807665E-18
   53.30442        5.0872538E-19
   53.43126       -3.4635851E-18
   53.55810       -6.9226535E-18
   53.68495       -9.5899507E-18
   53.81179       -1.1250929E-17
   53.93863       -1.1782006E-17
   54.06548       -1.1172756E-17
   54.19232       -9.5407012E-18
   54.31916       -7.1361492E-18
   54.44601       -4.3351609E-18
   54.57285       -1.6194151E-18
   54.69970        4.5711805E-19
   54.82654        1.3138020E-18
   54.95338        3.9888353E-19
   55.08023       -2.7485506E-18
   55.20707       -8.4349460E-18
   55.33392       -1.6752568E-17
   55.46076       -2.7529605E-17
   55.58760       -4.0296312E-17
   55.71444       -5.4272452E-17
   55.84129       -6.8380560E-17
   55.96813       -8.1287509E-17
   56.09497       -9.1475171E-17
   56.22182       -9.7337936E-17
   56.34866       -9.7303201E-17
   56.47551       -8.9967571E-17
   56.60235       -7.4240062E-17
   56.72919       -4.9481600E-17
   56.85604       -1.5629523E-17
   56.98288        2.6704656E-17
   57.10973        7.6174771E-17
   57.23657        1.3068578E-16
   57.36341        1.8743231E-16
   57.49026        2.4299313E-16
   57.61710        2.9348088E-16
   57.74394        3.3474295E-16
   57.87079        3.6260517E-16
   57.99763        3.7314602E-16
   58.12447        3.6298713E-16
   58.25132        3.2958232E-16
   58.37816        2.7148661E-16
   58.50500        1.8858683E-16
   58.63185        8.2274659E-17
   58.75869       -4.4453464E-17
   58.88554       -1.8698383E-16
   59.01238       -3.3916970E-16
   59.13923       -4.9351766E-16
   59.26607       -6.4147573E-16
   59.39291       -7.7381717E-16
   59.51975       -8.8110755E-16
   59.64660       -9.5423651E-16
   59.77344       -9.8499047E-16
   59.90028       -9.6663495E-16
   60.02713       -8.9447505E-16
   60.15397       -7.6635518E-16
   60.28082       -5.8306286E-16
   60.40766       -3.4859945E-16
   60.53450       -7.0286384E-17
   60.66135        2.4131738E-16
   60.78819        5.7270306E-16
   60.91504        9.0790931E-16
   61.04188        1.2292182E-15
   61.16872        1.5180283E-15
   61.29557        1.7558638E-15
   61.42241        1.9254713E-15
   61.54925        2.0119385E-15
   61.67610        2.0037659E-15
   61.80294        1.8938160E-15
   61.92978        1.6800687E-15
   62.05663        1.3661182E-15
   62.18347        9.6135667E-16
   62.31031        4.8081126E-16
   62.43716       -5.5377720E-17
   62.56400       -6.2282984E-16
   62.69085       -1.1941105E-15
   62.81769       -1.7401711E-15
   62.94453       -2.2319632E-15
   63.07138       -2.6421276E-15
   63.19822       -2.9466557E-15
   63.32506       -3.1264054E-15
   63.45191       -3.1683754E-15
   63.57875       -3.0666381E-15
   63.70559       -2.8228599E-15
   63.83244       -2.4463648E-15
   63.95928       -1.9537169E-15
   64.08613       -1.3678409E-15
   64.21297       -7.1672291E-16
   64.33981       -3.1768186E-17
   64.46666        6.5408276E-16
   64.59350        1.3083608E-15
   64.72034        1.9010636E-15
   64.84719        2.4065047E-15
   64.97403        2.8048823E-15
   65.10088        3.0834530E-15
   65.22771        3.2372170E-15
   65.35456        3.2690453E-15
   65.48141        3.1892224E-15
   65.60825        3.0144206E-15
   65.73509        2.7661527E-15
   65.86194        2.4688008E-15
   65.98878        2.1473549E-15
   66.11562        1.8250280E-15
   66.24247        1.5209311E-15
   66.36931        1.2480095E-15
   66.49615        1.0114345E-15
   66.62300        8.0762945E-16
   66.74984        6.2407244E-16
   66.87669        4.3996755E-16
   67.00353        2.2782373E-16
   67.13037       -4.4108579E-17
   67.25722       -4.0864570E-16
   67.38406       -8.9593004E-16
   67.51090       -1.5293917E-15
   67.63775       -2.3217387E-15
   67.76459       -3.2713187E-15
   67.89143       -4.3592275E-15
   68.01828       -5.5474928E-15
   68.14512       -6.7786526E-15
   68.27197       -7.9769167E-15
   68.39881       -9.0510434E-15
   68.52565       -9.8989124E-15
   68.65250       -1.0413626E-14
   68.77934       -1.0490879E-14
   68.90618       -1.0037146E-14
   69.03303       -8.9781859E-15
   69.15987       -7.2672479E-15
   69.28671       -4.8923509E-15
   69.41356       -1.8820077E-15
   69.54041        1.6911732E-15
   69.66724        5.7094717E-15
   69.79409        1.0011947E-14
   69.92093        1.4399372E-14
   70.04778        1.8642160E-14
   70.17462        2.2491012E-14
   70.30146        2.5689842E-14
   70.42831        2.7990331E-14
   70.55515        2.9167315E-14
   70.68199        2.9034168E-14
   70.80884        2.7457185E-14
   70.93568        2.4368093E-14
   71.06252        1.9773784E-14
   71.18937        1.3762541E-14
   71.31622        6.5061155E-15
   71.44305       -1.7426513E-15
   71.56990       -1.0656943E-14
   71.69675       -1.9847637E-14
   71.82359       -2.8879253E-14
   71.95043       -3.7289572E-14
   72.07728       -4.4612107E-14
   72.20412       -5.0400388E-14
   72.33096       -5.4252931E-14
   72.45780       -5.5837493E-14
   72.58465       -5.4913339E-14
   72.71149       -5.1350129E-14
   72.83833       -4.5142197E-14
   72.96518       -3.6417067E-14
   73.09203       -2.5437397E-14
   73.21886       -1.2595733E-14
   73.34571        1.5980946E-15
   73.47256        1.6536753E-14
   73.59940        3.1541728E-14
   73.72624        4.5895125E-14
   73.85309        5.8875471E-14
   73.97993        6.9795738E-14
   74.10677        7.8041475E-14
   74.23362        8.3106848E-14
   74.36046        8.4626357E-14
   74.48730        8.2400097E-14
   74.61415        7.6410707E-14
   74.74099        6.6830595E-14
   74.86784        5.4018632E-14
   74.99467        3.8505806E-14
   75.12152        2.0970616E-14
   75.24837        2.2050203E-15
   75.37521       -1.6927106E-14
   75.50205       -3.5536732E-14
   75.62890       -5.2758870E-14
   75.75574       -6.7801084E-14
   75.88258       -7.9988337E-14
   76.00943       -8.8801145E-14
   76.13627       -9.3904431E-14
   76.26311       -9.5165046E-14
   76.38996       -9.2656643E-14
   76.51680       -8.6651437E-14
   76.64365       -7.7599087E-14
   76.77049       -6.6094137E-14
   76.89733       -5.2833995E-14
   77.02418       -3.8570326E-14
   77.15102       -2.4057023E-14
   77.27786       -9.9984667E-15
   77.40471        2.9983179E-15
   77.53155        1.4464084E-14
   77.65839        2.4097489E-14
   77.78524        3.1782401E-14
   77.91208        3.7591088E-14
   78.03893        4.1772497E-14
   78.16577        4.4726362E-14
   78.29261        4.6964467E-14
   78.41946        4.9061673E-14
   78.54630        5.1599794E-14
   78.67314        5.5108397E-14
   78.79999        6.0006585E-14
   78.92683        6.6550193E-14
   79.05367        7.4788483E-14
   79.18052        8.4534173E-14
   79.30737        9.5349327E-14
   79.43420        1.0654974E-13
   79.56105        1.1722829E-13
   79.68790        1.2629690E-13
   79.81474        1.3254614E-13
   79.94158        1.3471902E-13
   80.06842        1.3159566E-13
   80.19527        1.2208401E-13
   80.32211        1.0531102E-13
   80.44895        8.0708850E-14
   80.57580        4.8089859E-14
   80.70264        7.7052664E-15
   80.82948       -3.9717751E-14
   80.95633       -9.2964441E-14
   81.08318       -1.5034880E-13
   81.21001       -2.0975928E-13
   81.33686       -2.6873328E-13
   81.46371       -3.2455820E-13
   81.59055       -3.7439474E-13
   81.71739       -4.1541729E-13
   81.84424       -4.4496370E-13
   81.97108       -4.6068672E-13
   82.09792       -4.6069794E-13
   82.22476       -4.4369491E-13
   82.35161       -4.0906368E-13
   82.47845       -3.5694819E-13
   82.60529       -2.8828109E-13
   82.73214       -2.0477179E-13
   82.85899       -1.0885018E-13
   82.98582       -3.5676562E-15
   83.11267        1.0754048E-13
   83.23952        2.2062418E-13
   83.36636        3.3171014E-13
   83.49320        4.3690328E-13
   83.62005        5.3258667E-13
   83.74689        6.1560539E-13
   83.87373        6.8342201E-13
   84.00058        7.3423293E-13
   84.12742        7.6703493E-13
   84.25426        7.8163740E-13
   84.38111        7.7861686E-13
   84.50795        7.5921669E-13
   84.63480        7.2519730E-13
   84.76163        6.7864659E-13
   84.88848        6.2176506E-13
   85.01533        5.5664089E-13
   85.14217        4.8503302E-13
   85.26901        4.0818024E-13
   85.39586        3.2665410E-13
   85.52270        2.4027015E-13
   85.64954        1.4806980E-13
   85.77639        4.8380147E-14
   85.90323       -6.1046742E-14
   86.03008       -1.8281673E-13
   86.15692       -3.1961063E-13
   86.28376       -4.7384606E-13
   86.41061       -6.4730860E-13
   86.53745       -8.4077011E-13
   86.66429       -1.0536244E-12
   86.79114       -1.2835665E-12
   86.91798       -1.5263408E-12
   87.04482       -1.7755839E-12
   87.17167       -2.0227845E-12
   87.29851       -2.2573740E-12
   87.42535       -2.4669578E-12
   87.55220       -2.6376932E-12
   87.67904       -2.7548001E-12
   87.80589       -2.8031989E-12
   87.93273       -2.7682474E-12
   88.05957       -2.6365514E-12
   88.18642       -2.3968093E-12
   88.31326       -2.0406530E-12
   88.44010       -1.5634399E-12
   88.56695       -9.6495175E-13
   88.69379       -2.4995907E-13
   88.82063        5.7139281E-13
   88.94748        1.4834026E-12
   89.07433        2.4648701E-12
   89.20116        3.4893984E-12
   89.32801        4.5259551E-12
   89.45486        5.5396733E-12
   89.58170        6.4928848E-12
   89.70854        7.3463440E-12
   89.83538        8.0606060E-12
   89.96223        8.5975081E-12
   90.08907        8.9216872E-12
   90.21591        9.0020916E-12
   90.34276        8.8133997E-12
   90.46960        8.3373031E-12
   90.59644        7.5635965E-12
   90.72329        6.4910100E-12
   90.85014        5.1277693E-12
   90.97697        3.4918427E-12
   91.10382        1.6108637E-12
   91.23067       -4.7826445E-13
   91.35751       -2.7300787E-12
   91.48435       -5.0915474E-12
   91.61120       -7.5033070E-12
   91.73804       -9.9011129E-12
   91.86488       -1.2217439E-11
   91.99173       -1.4383186E-11
   92.11857       -1.6329446E-11
   92.24541       -1.7989277E-11
   92.37225       -1.9299423E-11
   92.49910       -2.0201981E-11
   92.62595       -2.0645938E-11
   92.75278       -2.0588600E-11
   92.87963       -1.9996860E-11
   93.00648       -1.8848312E-11
   93.13332       -1.7132216E-11
   93.26016       -1.4850282E-11
   93.38701       -1.2017306E-11
   93.51385       -8.6616218E-12
   93.64069       -4.8253949E-12
   93.76754       -5.6471500E-13
   93.89438        4.0505047E-12
   94.02122        8.9368565E-12
   94.14807        1.3998033E-11
   94.27491        1.9125692E-11
   94.40176        2.4200683E-11
   94.52859        2.9094595E-11
   94.65544        3.3671749E-11
   94.78229        3.7791558E-11
   94.90913        4.1311392E-11
   95.03597        4.4089819E-11
   95.16282        4.5990284E-11
   95.28966        4.6885169E-11
   95.41650        4.6660138E-11
   95.54335        4.5218700E-11
   95.67019        4.2486840E-11
   95.79704        3.8417627E-11
   95.92388        3.2995554E-11
   96.05072        2.6240501E-11
   96.17757        1.8211047E-11
   96.30441        9.0070061E-12
   96.43125       -1.2290488E-12
   96.55810       -1.2311489E-11
   96.68494       -2.4012623E-11
   96.81178       -3.6065241E-11
   96.93863       -4.8166658E-11
   97.06547       -5.9984441E-11
   97.19231       -7.1163610E-11
   97.31916       -8.1335459E-11
   97.44600       -9.0127614E-11
   97.57285       -9.7175323E-11
   97.69969       -1.0213349E-10
   97.82653       -1.0468929E-10
   97.95338       -1.0457492E-10
   98.08022       -1.0157986E-10
   98.20706       -9.5562551E-11
   98.33391       -8.6460554E-11
   98.46075       -7.4299164E-11
   98.58759       -5.9197640E-11
   98.71444       -4.1372902E-11
   98.84129       -2.1140168E-11
   98.96812        1.0895923E-12
   99.09497        2.4815636E-11
   99.22182        4.9456907E-11
   99.34866        7.4364875E-11
   99.47550        9.8839464E-11
   99.60234        1.2214797E-10
   99.72919        1.4354623E-10
   99.85603        1.6230139E-10
   99.98287        1.7771601E-10
   100.1097        1.8915218E-10
   100.2366        1.9605514E-10
   100.3634        1.9797536E-10
   100.4902        1.9458832E-10
   100.6171        1.8571113E-10
   100.7439        1.7131518E-10
   100.8708        1.5153442E-10
   100.9976        1.2666829E-10
   101.1245        9.7179688E-11
   101.2513        6.3687264E-11
   101.3782        2.6952381E-11
   101.5050       -1.2139064E-11
   101.6318       -5.2599394E-11
   101.7587       -9.3365857E-11
   101.8855       -1.3333049E-10
   102.0124       -1.7137218E-10
   102.1392       -2.0638985E-10
   102.2661       -2.3733546E-10
   102.3929       -2.6324634E-10
   102.5197       -2.8327490E-10
   102.6466       -2.9671537E-10
   102.7734       -3.0302641E-10
   102.9003       -3.0184899E-10
   103.0271       -2.9301886E-10
   103.1540       -2.7657324E-10
   103.2808       -2.5275157E-10
   103.4077       -2.2199066E-10
   103.5345       -1.8491395E-10
   103.6613       -1.4231577E-10
   103.7882       -9.5141020E-11
   103.9150       -4.4460793E-11
   104.0419        8.5548226E-12
   104.1687        6.2666358E-11
   104.2956        1.1659579E-10
   104.4224        1.6905788E-10
   104.5492        2.1879108E-10
   104.6761        2.6458741E-10
   104.8029        3.0532024E-10
   104.9298        3.3996994E-10
   105.0566        3.6764652E-10
   105.1835        3.8760858E-10
   105.3103        3.9927958E-10
   105.4371        4.0225934E-10
   105.5640        3.9633241E-10
   105.6908        3.8147227E-10
   105.8177        3.5784156E-10
   105.9445        3.2578884E-10
   106.0714        2.8584179E-10
   106.1982        2.3869651E-10
   106.3251        1.8520456E-10
   106.4519        1.2635595E-10
   106.5787        6.3260834E-11
   106.7056       -2.8718937E-12
   106.8324       -7.0757337E-11
   106.9593       -1.3905878E-10
   107.0861       -2.0641257E-10
   107.2130       -2.7145353E-10
   107.3398       -3.3284001E-10
   107.4667       -3.8927805E-10
   107.5935       -4.3954473E-10
   107.7203       -4.8250953E-10
   107.8472       -5.1715349E-10
   107.9740       -5.4258625E-10