  -7.200000       -5.9190087E-19
  -7.073156       -5.9186799E-19
  -6.946313       -5.9180435E-19
  -6.819469       -5.9171357E-19
  -6.692626       -5.9160061E-19
  -6.565782       -5.9147281E-19
  -6.438938       -5.9133705E-19
  -6.312095       -5.9120067E-19
  -6.185251       -5.9106966E-19
  -6.058407       -5.9095101E-19
  -5.931563       -5.9084875E-19
  -5.804720       -5.9076629E-19
  -5.677876       -5.9070472E-19
  -5.551033       -5.9066238E-19
  -5.424189       -5.9063736E-19
  -5.297346       -5.9062541E-19
  -5.170502       -5.9062102E-19
  -5.043658       -5.9061750E-19
  -4.916814       -5.9060882E-19
  -4.789971       -5.9058876E-19
  -4.663127       -5.9055195E-19
  -4.536283       -5.9049420E-19
  -4.409440       -5.9041293E-19
  -4.282596       -5.9030731E-19
  -4.155753       -5.9017879E-19
  -4.028909       -5.9003036E-19
  -3.902065       -5.8986725E-19
  -3.775222       -5.8969406E-19
  -3.648378       -5.8951844E-19
  -3.521534       -5.8934768E-19
  -3.394691       -5.8918850E-19
  -3.267847       -5.8904715E-19
  -3.141004       -5.8892845E-19
  -3.014160       -5.8883596E-19
  -2.887316       -5.8877056E-19
  -2.760473       -5.8873148E-19
  -2.633629       -5.8871638E-19
  -2.506785       -5.8872026E-19
  -2.379942       -5.8873763E-19
  -2.253098       -5.8876100E-19
  -2.126254       -5.8878333E-19
  -1.999411       -5.8879771E-19
  -1.872567       -5.8879755E-19
  -1.745723       -5.8877780E-19
  -1.618880       -5.8873505E-19
  -1.492036       -5.8866722E-19
  -1.365193       -5.8857468E-19
  -1.238349       -5.8845934E-19
  -1.111505       -5.8832508E-19
 -0.9846617       -5.8817768E-19
 -0.8578180       -5.8802253E-19
 -0.7309744       -5.8786739E-19
 -0.6041307       -5.8771829E-19
 -0.4772871       -5.8758051E-19
 -0.3504435       -5.8745928E-19
 -0.2235998       -5.8735779E-19
 -9.6756198E-02   -5.8727740E-19
  3.0087441E-02   -5.8721815E-19
  0.1569311       -5.8717881E-19
  0.2837747       -5.8715549E-19
  0.4106184       -5.8714355E-19
  0.5374620       -5.8713823E-19
  0.6643056       -5.8713285E-19
  0.7911493       -5.8712179E-19
  0.9179929       -5.8709940E-19
   1.044837       -5.8706083E-19
   1.171680       -5.8700257E-19
   1.298524       -5.8692285E-19
   1.425367       -5.8682064E-19
   1.552211       -5.8669760E-19
   1.679055       -5.8655682E-19
   1.805898       -5.8640214E-19
   1.932742       -5.8623986E-19
   2.059586       -5.8607551E-19
   2.186429       -5.8591550E-19
   2.313273       -5.8576645E-19
   2.440117       -5.8563343E-19
   2.566960       -5.8552088E-19
   2.693804       -5.8543118E-19
   2.820647       -5.8536501E-19
   2.947491       -5.8532205E-19
   3.074335       -5.8529884E-19
   3.201178       -5.8529175E-19
   3.328022       -5.8529568E-19
   3.454866       -5.8530442E-19
   3.581709       -5.8531166E-19
   3.708553       -5.8531186E-19
   3.835397       -5.8529909E-19
   3.962240       -5.8526999E-19
   4.089084       -5.8522139E-19
   4.215928       -5.8515232E-19
   4.342771       -5.8506428E-19
   4.469615       -5.8495964E-19
   4.596458       -5.8484166E-19
   4.723302       -5.8471526E-19
   4.850146       -5.8458689E-19
   4.976989       -5.8446168E-19
   5.103833       -5.8434660E-19
   5.230677       -5.8424635E-19
   5.357520       -5.8416493E-19
   5.484364       -5.8410532E-19
   5.611207       -5.8406918E-19
   5.738051       -5.8405533E-19
   5.864895       -5.8406236E-19
   5.991738       -5.8408619E-19
   6.118582       -5.8412186E-19
   6.245426       -5.8416482E-19
   6.372270       -5.8420866E-19
   6.499113       -5.8424749E-19
   6.625957       -5.8427489E-19
   6.752800       -5.8428740E-19
   6.879644       -5.8428135E-19
   7.006487       -5.8425530E-19
   7.133331       -5.8420954E-19
   7.260175       -5.8414497E-19
   7.387019       -5.8406463E-19
   7.513862       -5.8397281E-19
   7.640706       -5.8387531E-19
   7.767550       -5.8377688E-19
   7.894393       -5.8368309E-19
   8.021236       -5.8359867E-19
   8.148081       -5.8352867E-19
   8.274924       -5.8347620E-19
   8.401768       -5.8344285E-19
   8.528611       -5.8342910E-19
   8.655455       -5.8343385E-19
   8.782298       -5.8345345E-19
   8.909142       -5.8348411E-19
   9.035986       -5.8352091E-19
   9.162829       -5.8355824E-19
   9.289673       -5.8359009E-19
   9.416516       -5.8361154E-19
   9.543361       -5.8361899E-19
   9.670204       -5.8360823E-19
   9.797048       -5.8357799E-19
   9.923891       -5.8352800E-19
   10.05073       -5.8345882E-19
   10.17758       -5.8337383E-19
   10.30442       -5.8327648E-19
   10.43127       -5.8317143E-19
   10.55811       -5.8306405E-19
   10.68495       -5.8295952E-19
   10.81180       -5.8286248E-19
   10.93864       -5.8277800E-19
   11.06548       -5.8270961E-19
   11.19233       -5.8265966E-19
   11.31917       -5.8263020E-19
   11.44602       -5.8262048E-19
   11.57286       -5.8262942E-19
   11.69970       -5.8265413E-19
   11.82655       -5.8269048E-19
   11.95339       -5.8273390E-19
   12.08023       -5.8277914E-19
   12.20708       -5.8282096E-19
   12.33392       -5.8285348E-19
   12.46076       -5.8287292E-19
   12.58761       -5.8287458E-19
   12.71445       -5.8285653E-19
   12.84130       -5.8281838E-19
   12.96814       -5.8276001E-19
   13.09498       -5.8268484E-19
   13.22183       -5.8259618E-19
   13.34867       -5.8249873E-19
   13.47551       -5.8239843E-19
   13.60236       -5.8230119E-19
   13.72920       -5.8221221E-19
   13.85604       -5.8213761E-19
   13.98289       -5.8208131E-19
   14.10973       -5.8204569E-19
   14.23658       -5.8203240E-19
   14.36342       -5.8204109E-19
   14.49026       -5.8206890E-19
   14.61711       -5.8211248E-19
   14.74395       -5.8216604E-19
   14.87079       -5.8222400E-19
   14.99764       -5.8227952E-19
   15.12448       -5.8232652E-19
   15.25132       -5.8235867E-19
   15.37817       -5.8237175E-19
   15.50501       -5.8236152E-19
   15.63186       -5.8232729E-19
   15.75870       -5.8226955E-19
   15.88554       -5.8219060E-19
   16.01239       -5.8209475E-19
   16.13923       -5.8198815E-19
   16.26607       -5.8187746E-19
   16.39292       -5.8176967E-19
   16.51976       -5.8167206E-19
   16.64660       -5.8159105E-19
   16.77345       -5.8153242E-19
   16.90029       -5.8149903E-19
   17.02714       -5.8149272E-19
   17.15398       -5.8151324E-19
   17.28082       -5.8155827E-19
   17.40767       -5.8162238E-19
   17.53451       -5.8170008E-19
   17.66135       -5.8178508E-19
   17.78820       -5.8186940E-19
   17.91504       -5.8194545E-19
   18.04188       -5.8200666E-19
   18.16873       -5.8204719E-19
   18.29557       -5.8206415E-19
   18.42241       -5.8205489E-19
   18.54926       -5.8201979E-19
   18.67610       -5.8196080E-19
   18.80295       -5.8188211E-19
   18.92979       -5.8178968E-19
   19.05663       -5.8168985E-19
   19.18348       -5.8158991E-19
   19.31032       -5.8149711E-19
   19.43716       -5.8141858E-19
   19.56401       -5.8135908E-19
   19.69085       -5.8132356E-19
   19.81770       -5.8131307E-19
   19.94454       -5.8132811E-19
   20.07138       -5.8136637E-19
   20.19823       -5.8142375E-19
   20.32507       -5.8149412E-19
   20.45191       -5.8157078E-19
   20.57876       -5.8164601E-19
   20.70560       -5.8171316E-19
   20.83245       -5.8176543E-19
   20.95929       -5.8179717E-19
   21.08613       -5.8180550E-19
   21.21297       -5.8178932E-19
   21.33982       -5.8174832E-19
   21.46666       -5.8168525E-19
   21.59351       -5.8160496E-19
   21.72035       -5.8151247E-19
   21.84719       -5.8141476E-19
   21.97404       -5.8131844E-19
   22.10088       -5.8123102E-19
   22.22772       -5.8115776E-19
   22.35457       -5.8110425E-19
   22.48141       -5.8107308E-19
   22.60826       -5.8106651E-19
   22.73510       -5.8108440E-19
   22.86194       -5.8112437E-19
   22.98879       -5.8118325E-19
   23.11563       -5.8125522E-19
   23.24247       -5.8133524E-19
   23.36932       -5.8141574E-19
   23.49616       -5.8149013E-19
   23.62300       -5.8155300E-19
   23.74985       -5.8159901E-19
   23.87669       -5.8162336E-19
   24.00353       -5.8162533E-19
   24.13038       -5.8160413E-19
   24.25722       -5.8156158E-19
   24.38407       -5.8150032E-19
   24.51091       -5.8142453E-19
   24.63775       -5.8133974E-19
   24.76460       -5.8125227E-19
   24.89144       -5.8116784E-19
   25.01828       -5.8109221E-19
   25.14513       -5.8102945E-19
   25.27197       -5.8098421E-19
   25.39882       -5.8095815E-19
   25.52566       -5.8095221E-19
   25.65250       -5.8096612E-19
   25.77935       -5.8099677E-19
   25.90619       -5.8104087E-19
   26.03303       -5.8109350E-19
   26.15988       -5.8114887E-19
   26.28672       -5.8120124E-19
   26.41356       -5.8124524E-19
   26.54041       -5.8127507E-19
   26.66725       -5.8128763E-19
   26.79410       -5.8127931E-19
   26.92094       -5.8124948E-19
   27.04778       -5.8119819E-19
   27.17463       -5.8112835E-19
   27.30147       -5.8104418E-19
   27.42831       -5.8095045E-19
   27.55516       -5.8085346E-19
   27.68200       -5.8075875E-19
   27.80884       -5.8067417E-19
   27.93569       -5.8060417E-19
   28.06253       -5.8055304E-19
   28.18937       -5.8052388E-19
   28.31622       -5.8051794E-19
   28.44306       -5.8053438E-19
   28.56991       -5.8057021E-19
   28.69675       -5.8062211E-19
   28.82359       -5.8068518E-19
   28.95044       -5.8075379E-19
   29.07728       -5.8082131E-19
   29.20412       -5.8088190E-19
   29.33097       -5.8093018E-19
   29.45781       -5.8096157E-19
   29.58466       -5.8097372E-19
   29.71150       -5.8096524E-19
   29.83834       -5.8093660E-19
   29.96519       -5.8088976E-19
   30.09203       -5.8082922E-19
   30.21887       -5.8075932E-19
   30.34572       -5.8068617E-19
   30.47256       -5.8061637E-19
   30.59941       -5.8055547E-19
   30.72625       -5.8050843E-19
   30.85309       -5.8048015E-19
   30.97993       -5.8047208E-19
   31.10678       -5.8048532E-19
   31.23362       -5.8051928E-19
   31.36047       -5.8056990E-19
   31.48731       -5.8063302E-19
   31.61415       -5.8070302E-19
   31.74100       -5.8077405E-19
   31.86784       -5.8084007E-19
   31.99468       -5.8089524E-19
   32.12153       -5.8093473E-19
   32.24837       -5.8095531E-19
   32.37521       -5.8095428E-19
   32.50206       -5.8093210E-19
   32.62890       -5.8088960E-19
   32.75574       -5.8083015E-19
   32.88259       -5.8075772E-19
   33.00943       -5.8067676E-19
   33.13628       -5.8059295E-19
   33.26312       -5.8051220E-19
   33.38997       -5.8043915E-19
   33.51681       -5.8037851E-19
   33.64365       -5.8033379E-19
   33.77050       -5.8030706E-19
   33.89734       -5.8029874E-19
   34.02418       -5.8030815E-19
   34.15103       -5.8033250E-19
   34.27787       -5.8036863E-19
   34.40471       -5.8041221E-19
   34.53156       -5.8045849E-19
   34.65840       -5.8050264E-19
   34.78524       -5.8053965E-19
   34.91209       -5.8056514E-19
   35.03893       -5.8057651E-19
   35.16578       -5.8057150E-19
   35.29262       -5.8054885E-19
   35.41946       -5.8051013E-19
   35.54631       -5.8045730E-19
   35.67315       -5.8039303E-19
   35.80000       -5.8032164E-19
   35.92684       -5.8024802E-19
   36.05368       -5.8017724E-19
   36.18052       -5.8011417E-19
   36.30737       -5.8006283E-19
   36.43421       -5.8002602E-19
   36.56105       -5.8000638E-19
   36.68790       -5.8000529E-19
   36.81474       -5.8002179E-19
   36.94159       -5.8005332E-19
   37.06843       -5.8009814E-19
   37.19527       -5.8015227E-19
   37.32212       -5.8021131E-19
   37.44896       -5.8027030E-19
   37.57581       -5.8032526E-19
   37.70265       -5.8037199E-19
   37.82949       -5.8040772E-19
   37.95634       -5.8042907E-19
   38.08318       -5.8043558E-19
   38.21002       -5.8042612E-19
   38.33687       -5.8040213E-19
   38.46371       -5.8036558E-19
   38.59055       -5.8031952E-19
   38.71740       -5.8026699E-19
   38.84424       -5.8021193E-19
   38.97108       -5.8015905E-19
   39.09793       -5.8011200E-19
   39.22477       -5.8007405E-19
   39.35162       -5.8004851E-19
   39.47846       -5.8003688E-19
   39.60530       -5.8004060E-19
   39.73215       -5.8005891E-19
   39.85899       -5.8009101E-19
   39.98583       -5.8013449E-19
   40.11268       -5.8018515E-19
   40.23952       -5.8023882E-19
   40.36636       -5.8029129E-19
   40.49321       -5.8033772E-19
   40.62005       -5.8037380E-19
   40.74689       -5.8039624E-19
   40.87374       -5.8040250E-19
   41.00058       -5.8039216E-19
   41.12743       -5.8036434E-19
   41.25427       -5.8032097E-19
   41.38111       -5.8026549E-19
   41.50796       -5.8020118E-19
   41.63480       -5.8013283E-19
   41.76165       -5.8006521E-19
   41.88849       -5.8000348E-19
   42.01533       -5.7995148E-19
   42.14218       -5.7991301E-19
   42.26902       -5.7989016E-19
   42.39586       -5.7988406E-19
   42.52271       -5.7989440E-19
   42.64955       -5.7991906E-19
   42.77639       -5.7995535E-19
   42.90324       -5.7999997E-19
   43.03008       -5.8004826E-19
   43.15693       -5.8009540E-19
   43.28377       -5.8013656E-19
   43.41061       -5.8016752E-19
   43.53746       -5.8018603E-19
   43.66430       -5.8018970E-19
   43.79114       -5.8017714E-19
   43.91799       -5.8014953E-19
   44.04483       -5.8010895E-19
   44.17167       -5.8005787E-19
   44.29852       -5.8000033E-19
   44.42536       -5.7994098E-19
   44.55220       -5.7988385E-19
   44.67905       -5.7983345E-19
   44.80589       -5.7979286E-19
   44.93274       -5.7976489E-19
   45.05958       -5.7975150E-19
   45.18642       -5.7975295E-19
   45.31327       -5.7976820E-19
   45.44011       -5.7979591E-19
   45.56696       -5.7983283E-19
   45.69380       -5.7987579E-19
   45.82064       -5.7992087E-19
   45.94748       -5.7996321E-19
   46.07433       -5.7999966E-19
   46.20117       -5.8002634E-19
   46.32801       -5.8004091E-19
   46.45486       -5.8004128E-19
   46.58170       -5.8002768E-19
   46.70855       -5.8000018E-19
   46.83539       -5.7996073E-19
   46.96223       -5.7991244E-19
   47.08908       -5.7985800E-19
   47.21592       -5.7980134E-19
   47.34277       -5.7974571E-19
   47.46961       -5.7969526E-19
   47.59645       -5.7965271E-19
   47.72330       -5.7962019E-19
   47.85014       -5.7959946E-19
   47.97698       -5.7959103E-19
   48.10383       -5.7959362E-19
   48.23067       -5.7960587E-19
   48.35751       -5.7962505E-19
   48.48436       -5.7964883E-19
   48.61120       -5.7967396E-19
   48.73804       -5.7969748E-19
   48.86489       -5.7971619E-19
   48.99173       -5.7972788E-19
   49.11858       -5.7973041E-19
   49.24542       -5.7972348E-19
   49.37226       -5.7970616E-19
   49.49911       -5.7967964E-19
   49.62595       -5.7964511E-19
   49.75279       -5.7960509E-19
   49.87964       -5.7956213E-19
   50.00648       -5.7951927E-19
   50.13332       -5.7947890E-19
   50.26017       -5.7944415E-19
   50.38701       -5.7941738E-19
   50.51385       -5.7939933E-19
   50.64070       -5.7939049E-19
   50.76754       -5.7939091E-19
   50.89439       -5.7939933E-19
   51.02123       -5.7941432E-19
   51.14808       -5.7943387E-19
   51.27492       -5.7945506E-19
   51.40176       -5.7947631E-19
   51.52861       -5.7949534E-19
   51.65545       -5.7950981E-19
   51.78229       -5.7951839E-19
   51.90914       -5.7951891E-19
   52.03598       -5.7951131E-19
   52.16282       -5.7949539E-19
   52.28967       -5.7947109E-19
   52.41651       -5.7944023E-19
   52.54335       -5.7940290E-19
   52.67020       -5.7936071E-19
   52.79704       -5.7931563E-19
   52.92389       -5.7926921E-19
   53.05073       -5.7922407E-19
   53.17757       -5.7918137E-19
   53.30442       -5.7914301E-19
   53.43126       -5.7910961E-19
   53.55810       -5.7908216E-19
   53.68495       -5.7906127E-19
   53.81179       -5.7904607E-19
   53.93863       -5.7903542E-19
   54.06548       -5.7902788E-19
   54.19232       -5.7902219E-19
   54.31916       -5.7901619E-19
   54.44601       -5.7900870E-19
   54.57285       -5.7899820E-19
   54.69970       -5.7898285E-19
   54.82654       -5.7896279E-19
   54.95338       -5.7893766E-19
   55.08023       -5.7890762E-19
   55.20707       -5.7887340E-19
   55.33392       -5.7883654E-19
   55.46076       -5.7879745E-19
   55.58760       -5.7875889E-19
   55.71444       -5.7872223E-19
   55.84129       -5.7868956E-19
   55.96813       -5.7866200E-19
   56.09497       -5.7864148E-19
   56.22182       -5.7862933E-19
   56.34866       -5.7862675E-19
   56.47551       -5.7863419E-19
   56.60235       -5.7865151E-19
   56.72919       -5.7867767E-19
   56.85604       -5.7871179E-19
   56.98288       -5.7875315E-19
   57.10973       -5.7879911E-19
   57.23657       -5.7884781E-19
   57.36341       -5.7889687E-19
   57.49026       -5.7894464E-19
   57.61710       -5.7898905E-19
   57.74394       -5.7902870E-19
   57.87079       -5.7906277E-19
   57.99763       -5.7909054E-19
   58.12447       -5.7911127E-19
   58.25132       -5.7912523E-19
   58.37816       -5.7913251E-19
   58.50500       -5.7913350E-19
   58.63185       -5.7912802E-19
   58.75869       -5.7911669E-19
   58.88554       -5.7909927E-19
   59.01238       -5.7907549E-19
   59.13923       -5.7904551E-19
   59.26607       -5.7900818E-19
   59.39291       -5.7896294E-19
   59.51975       -5.7890907E-19
   59.64660       -5.7884548E-19
   59.77344       -5.7877109E-19
   59.90028       -5.7868475E-19
   60.02713       -5.7858358E-19
   60.15397       -5.7846648E-19
   60.28082       -5.7833134E-19
   60.40766       -5.7817557E-19
   60.53450       -5.7799809E-19
   60.66135       -5.7779688E-19
   60.78819       -5.7757142E-19
   60.91504       -5.7732037E-19
   61.04188       -5.7704347E-19
   61.16872       -5.7674103E-19
   61.29557       -5.7641337E-19
   61.42241       -5.7606192E-19
   61.54925       -5.7568741E-19
   61.67610       -5.7529176E-19
   61.80294       -5.7487579E-19
   61.92978       -5.7444225E-19
   62.05663       -5.7399288E-19
   62.18347       -5.7352899E-19
   62.31031       -5.7305274E-19
   62.43716       -5.7256558E-19
   62.56400       -5.7206865E-19
   62.69085       -5.7156278E-19
   62.81769       -5.7104806E-19
   62.94453       -5.7052482E-19
   63.07138       -5.6999186E-19
   63.19822       -5.6944763E-19
   63.32506       -5.6889109E-19
   63.45191       -5.6831982E-19
   63.57875       -5.6773283E-19
   63.70559       -5.6712821E-19
   63.83244       -5.6650545E-19
   63.95928       -5.6586418E-19
   64.08613       -5.6520522E-19
   64.21297       -5.6452973E-19
   64.33981       -5.6383965E-19
   64.46666       -5.6313743E-19
   64.59350       -5.6242584E-19
   64.72034       -5.6170733E-19
   64.84719       -5.6098505E-19
   64.97403       -5.6026085E-19
   65.10088       -5.5953645E-19
   65.22771       -5.5881272E-19
   65.35456       -5.5808904E-19
   65.48141       -5.5736505E-19
   65.60825       -5.5663879E-19
   65.73509       -5.5590807E-19
   65.86194       -5.5516976E-19
   65.98878       -5.5442132E-19
   66.11562       -5.5365980E-19
   66.24247       -5.5288354E-19
   66.36931       -5.5209033E-19
   66.49615       -5.5127974E-19
   66.62300       -5.5045116E-19
   66.74984       -5.4960558E-19
   66.87669       -5.4874464E-19
   67.00353       -5.4786995E-19
   67.13037       -5.4698388E-19
   67.25722       -5.4608841E-19
   67.38406       -5.4518616E-19
   67.51090       -5.4427962E-19
   67.63775       -5.4336967E-19
   67.76459       -5.4245776E-19
   67.89143       -5.4154460E-19
   68.01828       -5.4063046E-19
   68.14512       -5.3971493E-19
   68.27197       -5.3879759E-19
   68.39881       -5.3787673E-19
   68.52565       -5.3695153E-19
   68.65250       -5.3601996E-19
   68.77934       -5.3508096E-19
   68.90618       -5.3413368E-19
   69.03303       -5.3317638E-19
   69.15987       -5.3220961E-19
   69.28671       -5.3123229E-19
   69.41356       -5.3024521E-19
   69.54041       -5.2924794E-19
   69.66724       -5.2824168E-19
   69.79409       -5.2722766E-19
   69.92093       -5.2620728E-19
   70.04778       -5.2518219E-19
   70.17462       -5.2415380E-19
   70.30146       -5.2312427E-19
   70.42831       -5.2209484E-19
   70.55515       -5.2106774E-19
   70.68199       -5.2004364E-19
   70.80884       -5.1902394E-19
   70.93568       -5.1800878E-19
   71.06252       -5.1699853E-19
   71.18937       -5.1599247E-19
   71.31622       -5.1498931E-19
   71.44305       -5.1398713E-19
   71.56990       -5.1298324E-19
   71.69675       -5.1197455E-19
   71.82359       -5.1095862E-19
   71.95043       -5.0993245E-19
   72.07728       -5.0889320E-19
   72.20412       -5.0783885E-19
   72.33096       -5.0676874E-19
   72.45780       -5.0568260E-19
   72.58465       -5.0458178E-19
   72.71149       -5.0346793E-19
   72.83833       -5.0234394E-19
   72.96518       -5.0121303E-19
   73.09203       -5.0007773E-19
   73.21886       -4.9894190E-19
   73.34571       -4.9780846E-19
   73.47256       -4.9667889E-19
   73.59940       -4.9555563E-19
   73.72624       -4.9443837E-19
   73.85309       -4.9332617E-19
   73.97993       -4.9221770E-19
   74.10677       -4.9111026E-19
   74.23362       -4.8999982E-19
   74.36046       -4.8888272E-19
   74.48730       -4.8775439E-19
   74.61415       -4.8661159E-19
   74.74099       -4.8545017E-19
   74.86784       -4.8426746E-19
   74.99467       -4.8306148E-19
   75.12152       -4.8183105E-19
   75.24837       -4.8057689E-19
   75.37521       -4.7930066E-19
   75.50205       -4.7800420E-19
   75.62890       -4.7669100E-19
   75.75574       -4.7536509E-19
   75.88258       -4.7403017E-19
   76.00943       -4.7269029E-19
   76.13627       -4.7134871E-19
   76.26311       -4.7000883E-19
   76.38996       -4.6867283E-19
   76.51680       -4.6734148E-19
   76.64365       -4.6601427E-19
   76.77049       -4.6469125E-19
   76.89733       -4.6337086E-19
   77.02418       -4.6205058E-19
   77.15102       -4.6072776E-19
   77.27786       -4.5939988E-19
   77.40471       -4.5806517E-19
   77.53155       -4.5672188E-19
   77.65839       -4.5536887E-19
   77.78524       -4.5400713E-19
   77.91208       -4.5263732E-19
   78.03893       -4.5126249E-19
   78.16577       -4.4988554E-19
   78.29261       -4.4851144E-19
   78.41946       -4.4714530E-19
   78.54630       -4.4579214E-19
   78.67314       -4.4445748E-19
   78.79999       -4.4314547E-19
   78.92683       -4.4186019E-19
   79.05367       -4.4060416E-19
   79.18052       -4.3937828E-19
   79.30737       -4.3818270E-19
   79.43420       -4.3701461E-19
   79.56105       -4.3587093E-19
   79.68790       -4.3474669E-19
   79.81474       -4.3363749E-19
   79.94158       -4.3253724E-19
   80.06842       -4.3144061E-19
   80.19527       -4.3034299E-19
   80.32211       -4.2924100E-19
   80.44895       -4.2813111E-19
   80.57580       -4.2701183E-19
   80.70264       -4.2588249E-19
   80.82948       -4.2474404E-19
   80.95633       -4.2359787E-19
   81.08318       -4.2244672E-19
   81.21001       -4.2129314E-19
   81.33686       -4.2014093E-19
   81.46371       -4.1899337E-19
   81.59055       -4.1785334E-19
   81.71739       -4.1672411E-19
   81.84424       -4.1560785E-19
   81.97108       -4.1450579E-19
   82.09792       -4.1341861E-19
   82.22476       -4.1234473E-19
   82.35161       -4.1128358E-19
   82.47845       -4.1023239E-19
   82.60529       -4.0918815E-19
   82.73214       -4.0814896E-19
   82.85899       -4.0711046E-19
   82.98582       -4.0607069E-19
   83.11267       -4.0502738E-19
   83.23952       -4.0398033E-19
   83.36636       -4.0292916E-19
   83.49320       -4.0187505E-19
   83.62005       -4.0081996E-19
   83.74689       -3.9976670E-19
   83.87373       -3.9871871E-19
   84.00058       -3.9768029E-19
   84.12742       -3.9665412E-19
   84.25426       -3.9564418E-19
   84.38111       -3.9465257E-19
   84.50795       -3.9368079E-19
   84.63480       -3.9272907E-19
   84.76163       -3.9179645E-19
   84.88848       -3.9088117E-19
   85.01533       -3.8998056E-19
   85.14217       -3.8909090E-19
   85.26901       -3.8820744E-19
   85.39586       -3.8732590E-19
   85.52270       -3.8644255E-19
   85.64954       -3.8555284E-19
   85.77639       -3.8465336E-19
   85.90323       -3.8374266E-19
   86.03008       -3.8282001E-19
   86.15692       -3.8188561E-19
   86.28376       -3.8094092E-19
   86.41061       -3.7998943E-19
   86.53745       -3.7903504E-19
   86.66429       -3.7808221E-19
   86.79114       -3.7713599E-19
   86.91798       -3.7620079E-19
   87.04482       -3.7528008E-19
   87.17167       -3.7437693E-19
   87.29851       -3.7349275E-19
   87.42535       -3.7262824E-19
   87.55220       -3.7178163E-19
   87.67904       -3.7095127E-19
   87.80589       -3.7013399E-19
   87.93273       -3.6932637E-19
   88.05957       -3.6852458E-19
   88.18642       -3.6772508E-19
   88.31326       -3.6692473E-19
   88.44010       -3.6612110E-19
   88.56695       -3.6531194E-19
   88.69379       -3.6449587E-19
   88.82063       -3.6367223E-19
   88.94748       -3.6284226E-19
   89.07433       -3.6200647E-19
   89.20116       -3.6116639E-19
   89.32801       -3.6032499E-19
   89.45486       -3.5948429E-19
   89.58170       -3.5864682E-19
   89.70854       -3.5781494E-19
   89.83538       -3.5699125E-19
   89.96223       -3.5617715E-19
   90.08907       -3.5537442E-19
   90.21591       -3.5458304E-19
   90.34276       -3.5380309E-19
   90.46960       -3.5303321E-19
   90.59644       -3.5227234E-19
   90.72329       -3.5151834E-19
   90.85014       -3.5076834E-19
   90.97697       -3.5002047E-19
   91.10382       -3.4927223E-19
   91.23067       -3.4852144E-19
   91.35751       -3.4776643E-19
   91.48435       -3.4700612E-19
   91.61120       -3.4624046E-19
   91.73804       -3.4547069E-19
   91.86488       -3.4469813E-19
   91.99173       -3.4392528E-19
   92.11857       -3.4315502E-19
   92.24541       -3.4239102E-19
   92.37225       -3.4163738E-19
   92.49910       -3.4089791E-19
   92.62595       -3.4017580E-19
   92.75278       -3.3947381E-19
   92.87963       -3.3879392E-19
   93.00648       -3.3813717E-19
   93.13332       -3.3750287E-19
   93.26016       -3.3688947E-19
   93.38701       -3.3629382E-19
   93.51385       -3.3571185E-19
   93.64069       -3.3513933E-19
   93.76754       -3.3457186E-19
   93.89438       -3.3400411E-19
   94.02122       -3.3343193E-19
   94.14807       -3.3285197E-19
   94.27491       -3.3226235E-19
   94.40176       -3.3166171E-19
   94.52859       -3.3105022E-19
   94.65544       -3.3042988E-19
   94.78229       -3.2980275E-19
   94.90913       -3.2917275E-19
   95.03597       -3.2854234E-19
   95.16282       -3.2791621E-19
   95.28966       -3.2729758E-19
   95.41650       -3.2668986E-19
   95.54335       -3.2609515E-19
   95.67019       -3.2551514E-19
   95.79704       -3.2494955E-19
   95.92388       -3.2439795E-19
   96.05072       -3.2385806E-19
   96.17757       -3.2332719E-19
   96.30441       -3.2280142E-19
   96.43125       -3.2227719E-19
   96.55810       -3.2175028E-19
   96.68494       -3.2121646E-19
   96.81178       -3.2067259E-19
   96.93863       -3.2011745E-19
   97.06547       -3.1954912E-19
   97.19231       -3.1896860E-19
   97.31916       -3.1837781E-19
   97.44600       -3.1777927E-19
   97.57285       -3.1717755E-19
   97.69969       -3.1657740E-19
   97.82653       -3.1598315E-19
   97.95338       -3.1539965E-19
   98.08022       -3.1483187E-19
   98.20706       -3.1428259E-19
   98.33391       -3.1375431E-19
   98.46075       -3.1324833E-19
   98.58759       -3.1276438E-19
   98.71444       -3.1230111E-19
   98.84129       -3.1185552E-19
   98.96812       -3.1142430E-19
   99.09497       -3.1100298E-19
   99.22182       -3.1058732E-19
   99.34866       -3.1017190E-19
   99.47550       -3.0975257E-19
   99.60234       -3.0932497E-19
   99.72919       -3.0888604E-19
   99.85603       -3.0843404E-19
   99.98287       -3.0796829E-19
   100.1097       -3.0748932E-19
   100.2366       -3.0699870E-19
   100.3634       -3.0649872E-19
   100.4902       -3.0599370E-19
   100.6171       -3.0548783E-19
   100.7439       -3.0498444E-19
   100.8708       -3.0448751E-19
   100.9976       -3.0399906E-19
   101.1245       -3.0352136E-19
   101.2513       -3.0305465E-19
   101.3782       -3.0259820E-19
   101.5050       -3.0214801E-19
   101.6318       -3.0170219E-19
   101.7587       -3.0125569E-19
   101.8855       -3.0080345E-19
   102.0124       -3.0034184E-19
   102.1392       -2.9986737E-19
   102.2661       -2.9937763E-19
   102.3929       -2.9887129E-19
   102.5197       -2.9834936E-19
   102.6466       -2.9781436E-19
   102.7734       -2.9727031E-19
   102.9003       -2.9672271E-19
   103.0271       -2.9617745E-19
   103.1540       -2.9564190E-19
   103.2808       -2.9512256E-19
   103.4077       -2.9462576E-19
   103.5345       -2.9415649E-19
   103.6613       -2.9371938E-19
   103.7882       -2.9331700E-19
   103.9150       -2.9295082E-19
   104.0419       -2.9262060E-19
   104.1687       -2.9232436E-19
   104.2956       -2.9205822E-19
   104.4224       -2.9181792E-19
   104.5492       -2.9159815E-19
   104.6761       -2.9139303E-19
   104.8029       -2.9119606E-19
   104.9298       -2.9100123E-19
   105.0566       -2.9080346E-19
   105.1835       -2.9059837E-19
   105.3103       -2.9038294E-19
   105.4371       -2.9015565E-19
   105.5640       -2.8991621E-19
   105.6908       -2.8966485E-19
   105.8177       -2.8940325E-19
   105.9445       -2.8913501E-19
   106.0714       -2.8886222E-19
   106.1982       -2.8858744E-19
   106.3251       -2.8831308E-19
   106.4519       -2.8804001E-19
   106.5787       -2.8776848E-19
   106.7056       -2.8749629E-19
   106.8324       -2.8722089E-19
   106.9593       -2.8693913E-19
   107.0861       -2.8664613E-19
   107.2130       -2.8633700E-19
   107.3398       -2.8600731E-19
   107.4667       -2.8565279E-19
   107.5935       -2.8527014E-19
   107.7203       -2.8485766E-19
   107.8472       -2.8441515E-19
   107.9740       -2.8394445E-19