  -7.200000       -4.4358929E-18
  -7.073156       -4.4359091E-18
  -6.946313       -4.4359405E-18
  -6.819469       -4.4359852E-18
  -6.692626       -4.4360393E-18
  -6.565782       -4.4360993E-18
  -6.438938       -4.4361605E-18
  -6.312095       -4.4362197E-18
  -6.185251       -4.4362734E-18
  -6.058407       -4.4363198E-18
  -5.931563       -4.4363566E-18
  -5.804720       -4.4363826E-18
  -5.677876       -4.4363996E-18
  -5.551033       -4.4364079E-18
  -5.424189       -4.4364095E-18
  -5.297346       -4.4364074E-18
  -5.170502       -4.4364033E-18
  -5.043658       -4.4364004E-18
  -4.916814       -4.4364008E-18
  -4.789971       -4.4364066E-18
  -4.663127       -4.4364190E-18
  -4.536283       -4.4364393E-18
  -4.409440       -4.4364662E-18
  -4.282596       -4.4364997E-18
  -4.155753       -4.4365381E-18
  -4.028909       -4.4365791E-18
  -3.902065       -4.4366209E-18
  -3.775222       -4.4366601E-18
  -3.648378       -4.4366953E-18
  -3.521534       -4.4367238E-18
  -3.394691       -4.4367453E-18
  -3.267847       -4.4367590E-18
  -3.141004       -4.4367644E-18
  -3.014160       -4.4367627E-18
  -2.887316       -4.4367549E-18
  -2.760473       -4.4367429E-18
  -2.633629       -4.4367284E-18
  -2.506785       -4.4367139E-18
  -2.379942       -4.4367015E-18
  -2.253098       -4.4366932E-18
  -2.126254       -4.4366895E-18
  -1.999411       -4.4366907E-18
  -1.872567       -4.4366978E-18
  -1.745723       -4.4367094E-18
  -1.618880       -4.4367247E-18
  -1.492036       -4.4367433E-18
  -1.365193       -4.4367627E-18
  -1.238349       -4.4367826E-18
  -1.111505       -4.4368016E-18
 -0.9846617       -4.4368181E-18
 -0.8578180       -4.4368314E-18
 -0.7309744       -4.4368409E-18
 -0.6041307       -4.4368458E-18
 -0.4772871       -4.4368463E-18
 -0.3504435       -4.4368421E-18
 -0.2235998       -4.4368343E-18
 -9.6756198E-02   -4.4368231E-18
  3.0087441E-02   -4.4368094E-18
  0.1569311       -4.4367958E-18
  0.2837747       -4.4367826E-18
  0.4106184       -4.4367706E-18
  0.5374620       -4.4367615E-18
  0.6643056       -4.4367553E-18
  0.7911493       -4.4367528E-18
  0.9179929       -4.4367528E-18
   1.044837       -4.4367553E-18
   1.171680       -4.4367590E-18
   1.298524       -4.4367623E-18
   1.425367       -4.4367648E-18
   1.552211       -4.4367660E-18
   1.679055       -4.4367640E-18
   1.805898       -4.4367594E-18
   1.932742       -4.4367524E-18
   2.059586       -4.4367433E-18
   2.186429       -4.4367333E-18
   2.313273       -4.4367222E-18
   2.440117       -4.4367114E-18
   2.566960       -4.4366998E-18
   2.693804       -4.4366895E-18
   2.820647       -4.4366800E-18
   2.947491       -4.4366717E-18
   3.074335       -4.4366651E-18
   3.201178       -4.4366601E-18
   3.328022       -4.4366568E-18
   3.454866       -4.4366552E-18
   3.581709       -4.4366552E-18
   3.708553       -4.4366572E-18
   3.835397       -4.4366606E-18
   3.962240       -4.4366651E-18
   4.089084       -4.4366709E-18
   4.215928       -4.4366767E-18
   4.342771       -4.4366829E-18
   4.469615       -4.4366883E-18
   4.596458       -4.4366928E-18
   4.723302       -4.4366953E-18
   4.850146       -4.4366970E-18
   4.976989       -4.4366965E-18
   5.103833       -4.4366949E-18
   5.230677       -4.4366916E-18
   5.357520       -4.4366874E-18
   5.484364       -4.4366829E-18
   5.611207       -4.4366779E-18
   5.738051       -4.4366726E-18
   5.864895       -4.4366676E-18
   5.991738       -4.4366630E-18
   6.118582       -4.4366585E-18
   6.245426       -4.4366548E-18
   6.372270       -4.4366519E-18
   6.499113       -4.4366498E-18
   6.625957       -4.4366490E-18
   6.752800       -4.4366494E-18
   6.879644       -4.4366515E-18
   7.006487       -4.4366548E-18
   7.133331       -4.4366593E-18
   7.260175       -4.4366647E-18
   7.387019       -4.4366701E-18
   7.513862       -4.4366742E-18
   7.640706       -4.4366775E-18
   7.767550       -4.4366783E-18
   7.894393       -4.4366771E-18
   8.021236       -4.4366750E-18
   8.148081       -4.4366717E-18
   8.274924       -4.4366676E-18
   8.401768       -4.4366639E-18
   8.528611       -4.4366606E-18
   8.655455       -4.4366589E-18
   8.782298       -4.4366589E-18
   8.909142       -4.4366601E-18
   9.035986       -4.4366626E-18
   9.162829       -4.4366659E-18
   9.289673       -4.4366701E-18
   9.416516       -4.4366738E-18
   9.543361       -4.4366771E-18
   9.670204       -4.4366800E-18
   9.797048       -4.4366825E-18
   9.923891       -4.4366850E-18
   10.05073       -4.4366887E-18
   10.17758       -4.4366936E-18
   10.30442       -4.4366998E-18
   10.43127       -4.4367089E-18
   10.55811       -4.4367201E-18
   10.68495       -4.4367329E-18
   10.81180       -4.4367474E-18
   10.93864       -4.4367619E-18
   11.06548       -4.4367764E-18
   11.19233       -4.4367892E-18
   11.31917       -4.4367995E-18
   11.44602       -4.4368066E-18
   11.57286       -4.4368099E-18
   11.69970       -4.4368086E-18
   11.82655       -4.4368037E-18
   11.95339       -4.4367954E-18
   12.08023       -4.4367850E-18
   12.20708       -4.4367739E-18
   12.33392       -4.4367631E-18
   12.46076       -4.4367540E-18
   12.58761       -4.4367478E-18
   12.71445       -4.4367462E-18
   12.84130       -4.4367495E-18
   12.96814       -4.4367578E-18
   13.09498       -4.4367714E-18
   13.22183       -4.4367892E-18
   13.34867       -4.4368103E-18
   13.47551       -4.4368330E-18
   13.60236       -4.4368558E-18
   13.72920       -4.4368765E-18
   13.85604       -4.4368926E-18
   13.98289       -4.4369037E-18
   14.10973       -4.4369083E-18
   14.23658       -4.4369062E-18
   14.36342       -4.4368980E-18
   14.49026       -4.4368843E-18
   14.61711       -4.4368669E-18
   14.74395       -4.4368479E-18
   14.87079       -4.4368285E-18
   14.99764       -4.4368111E-18
   15.12448       -4.4367983E-18
   15.25132       -4.4367908E-18
   15.37817       -4.4367896E-18
   15.50501       -4.4367941E-18
   15.63186       -4.4368041E-18
   15.75870       -4.4368177E-18
   15.88554       -4.4368351E-18
   16.01239       -4.4368537E-18
   16.13923       -4.4368715E-18
   16.26607       -4.4368872E-18
   16.39292       -4.4368996E-18
   16.51976       -4.4369075E-18
   16.64660       -4.4369104E-18
   16.77345       -4.4369075E-18
   16.90029       -4.4369000E-18
   17.02714       -4.4368889E-18
   17.15398       -4.4368744E-18
   17.28082       -4.4368587E-18
   17.40767       -4.4368425E-18
   17.53451       -4.4368285E-18
   17.66135       -4.4368177E-18
   17.78820       -4.4368115E-18
   17.91504       -4.4368107E-18
   18.04188       -4.4368161E-18
   18.16873       -4.4368268E-18
   18.29557       -4.4368434E-18
   18.42241       -4.4368640E-18
   18.54926       -4.4368872E-18
   18.67610       -4.4369116E-18
   18.80295       -4.4369352E-18
   18.92979       -4.4369567E-18
   19.05663       -4.4369741E-18
   19.18348       -4.4369873E-18
   19.31032       -4.4369956E-18
   19.43716       -4.4369993E-18
   19.56401       -4.4369993E-18
   19.69085       -4.4369956E-18
   19.81770       -4.4369898E-18
   19.94454       -4.4369832E-18
   20.07138       -4.4369765E-18
   20.19823       -4.4369712E-18
   20.32507       -4.4369683E-18
   20.45191       -4.4369679E-18
   20.57876       -4.4369712E-18
   20.70560       -4.4369782E-18
   20.83245       -4.4369894E-18
   20.95929       -4.4370030E-18
   21.08613       -4.4370200E-18
   21.21297       -4.4370382E-18
   21.33982       -4.4370576E-18
   21.46666       -4.4370770E-18
   21.59351       -4.4370952E-18
   21.72035       -4.4371110E-18
   21.84719       -4.4371234E-18
   21.97404       -4.4371320E-18
   22.10088       -4.4371362E-18
   22.22772       -4.4371354E-18
   22.35457       -4.4371300E-18
   22.48141       -4.4371209E-18
   22.60826       -4.4371093E-18
   22.73510       -4.4370961E-18
   22.86194       -4.4370837E-18
   22.98879       -4.4370737E-18
   23.11563       -4.4370675E-18
   23.24247       -4.4370667E-18
   23.36932       -4.4370721E-18
   23.49616       -4.4370837E-18
   23.62300       -4.4371010E-18
   23.74985       -4.4371246E-18
   23.87669       -4.4371515E-18
   24.00353       -4.4371809E-18
   24.13038       -4.4372115E-18
   24.25722       -4.4372408E-18
   24.38407       -4.4372673E-18
   24.51091       -4.4372896E-18
   24.63775       -4.4373062E-18
   24.76460       -4.4373173E-18
   24.89144       -4.4373223E-18
   25.01828       -4.4373219E-18
   25.14513       -4.4373165E-18
   25.27197       -4.4373078E-18
   25.39882       -4.4372971E-18
   25.52566       -4.4372863E-18
   25.65250       -4.4372780E-18
   25.77935       -4.4372735E-18
   25.90619       -4.4372739E-18
   26.03303       -4.4372801E-18
   26.15988       -4.4372929E-18
   26.28672       -4.4373128E-18
   26.41356       -4.4373384E-18
   26.54041       -4.4373690E-18
   26.66725       -4.4374034E-18
   26.79410       -4.4374393E-18
   26.92094       -4.4374753E-18
   27.04778       -4.4375088E-18
   27.17463       -4.4375390E-18
   27.30147       -4.4375647E-18
   27.42831       -4.4375841E-18
   27.55516       -4.4375969E-18
   27.68200       -4.4376027E-18
   27.80884       -4.4376027E-18
   27.93569       -4.4375961E-18
   28.06253       -4.4375849E-18
   28.18937       -4.4375705E-18
   28.31622       -4.4375539E-18
   28.44306       -4.4375374E-18
   28.56991       -4.4375237E-18
   28.69675       -4.4375146E-18
   28.82359       -4.4375113E-18
   28.95044       -4.4375163E-18
   29.07728       -4.4375299E-18
   29.20412       -4.4375531E-18
   29.33097       -4.4375849E-18
   29.45781       -4.4376246E-18
   29.58466       -4.4376697E-18
   29.71150       -4.4377177E-18
   29.83834       -4.4377661E-18
   29.96519       -4.4378112E-18
   30.09203       -4.4378505E-18
   30.21887       -4.4378819E-18
   30.34572       -4.4379042E-18
   30.47256       -4.4379162E-18
   30.59941       -4.4379187E-18
   30.72625       -4.4379129E-18
   30.85309       -4.4379005E-18
   30.97993       -4.4378852E-18
   31.10678       -4.4378691E-18
   31.23362       -4.4378546E-18
   31.36047       -4.4378459E-18
   31.48731       -4.4378434E-18
   31.61415       -4.4378500E-18
   31.74100       -4.4378666E-18
   31.86784       -4.4378926E-18
   31.99468       -4.4379278E-18
   32.12153       -4.4379704E-18
   32.24837       -4.4380196E-18
   32.37521       -4.4380717E-18
   32.50206       -4.4381255E-18
   32.62890       -4.4381764E-18
   32.75574       -4.4382235E-18
   32.88259       -4.4382636E-18
   33.00943       -4.4382942E-18
   33.13628       -4.4383153E-18
   33.26312       -4.4383253E-18
   33.38997       -4.4383248E-18
   33.51681       -4.4383149E-18
   33.64365       -4.4382967E-18
   33.77050       -4.4382731E-18
   33.89734       -4.4382463E-18
   34.02418       -4.4382194E-18
   34.15103       -4.4381954E-18
   34.27787       -4.4381764E-18
   34.40471       -4.4381640E-18
   34.53156       -4.4381606E-18
   34.65840       -4.4381660E-18
   34.78524       -4.4381805E-18
   34.91209       -4.4382028E-18
   35.03893       -4.4382318E-18
   35.16578       -4.4382645E-18
   35.29262       -4.4382996E-18
   35.41946       -4.4383331E-18
   35.54631       -4.4383629E-18
   35.67315       -4.4383865E-18
   35.80000       -4.4384005E-18
   35.92684       -4.4384043E-18
   36.05368       -4.4383972E-18
   36.18052       -4.4383782E-18
   36.30737       -4.4383492E-18
   36.43421       -4.4383116E-18
   36.56105       -4.4382682E-18
   36.68790       -4.4382223E-18
   36.81474       -4.4381776E-18
   36.94159       -4.4381379E-18
   37.06843       -4.4381065E-18
   37.19527       -4.4380866E-18
   37.32212       -4.4380800E-18
   37.44896       -4.4380874E-18
   37.57581       -4.4381077E-18
   37.70265       -4.4381400E-18
   37.82949       -4.4381809E-18
   37.95634       -4.4382268E-18
   38.08318       -4.4382740E-18
   38.21002       -4.4383178E-18
   38.33687       -4.4383542E-18
   38.46371       -4.4383803E-18
   38.59055       -4.4383939E-18
   38.71740       -4.4383939E-18
   38.84424       -4.4383807E-18
   38.97108       -4.4383559E-18
   39.09793       -4.4383211E-18
   39.22477       -4.4382798E-18
   39.35162       -4.4382363E-18
   39.47846       -4.4381933E-18
   39.60530       -4.4381553E-18
   39.73215       -4.4381255E-18
   39.85899       -4.4381061E-18
   39.98583       -4.4380990E-18
   40.11268       -4.4381048E-18
   40.23952       -4.4381234E-18
   40.36636       -4.4381532E-18
   40.49321       -4.4381913E-18
   40.62005       -4.4382347E-18
   40.74689       -4.4382798E-18
   40.87374       -4.4383224E-18
   41.00058       -4.4383596E-18
   41.12743       -4.4383881E-18
   41.25427       -4.4384063E-18
   41.38111       -4.4384121E-18
   41.50796       -4.4384055E-18
   41.63480       -4.4383873E-18
   41.76165       -4.4383588E-18
   41.88849       -4.4383228E-18
   42.01533       -4.4382827E-18
   42.14218       -4.4382413E-18
   42.26902       -4.4382016E-18
   42.39586       -4.4381677E-18
   42.52271       -4.4381420E-18
   42.64955       -4.4381267E-18
   42.77639       -4.4381230E-18
   42.90324       -4.4381321E-18
   43.03008       -4.4381532E-18
   43.15693       -4.4381851E-18
   43.28377       -4.4382256E-18
   43.41061       -4.4382715E-18
   43.53746       -4.4383191E-18
   43.66430       -4.4383650E-18
   43.79114       -4.4384047E-18
   43.91799       -4.4384349E-18
   44.04483       -4.4384518E-18
   44.17167       -4.4384539E-18
   44.29852       -4.4384402E-18
   44.42536       -4.4384121E-18
   44.55220       -4.4383712E-18
   44.67905       -4.4383211E-18
   44.80589       -4.4382661E-18
   44.93274       -4.4382107E-18
   45.05958       -4.4381602E-18
   45.18642       -4.4381189E-18
   45.31327       -4.4380899E-18
   45.44011       -4.4380759E-18
   45.56696       -4.4380779E-18
   45.69380       -4.4380949E-18
   45.82064       -4.4381259E-18
   45.94748       -4.4381677E-18
   46.07433       -4.4382161E-18
   46.20117       -4.4382669E-18
   46.32801       -4.4383153E-18
   46.45486       -4.4383571E-18
   46.58170       -4.4383890E-18
   46.70855       -4.4384076E-18
   46.83539       -4.4384121E-18
   46.96223       -4.4384026E-18
   47.08908       -4.4383794E-18
   47.21592       -4.4383451E-18
   47.34277       -4.4383025E-18
   47.46961       -4.4382549E-18
   47.59645       -4.4382057E-18
   47.72330       -4.4381590E-18
   47.85014       -4.4381180E-18
   47.97698       -4.4380858E-18
   48.10383       -4.4380647E-18
   48.23067       -4.4380556E-18
   48.35751       -4.4380581E-18
   48.48436       -4.4380709E-18
   48.61120       -4.4380932E-18
   48.73804       -4.4381222E-18
   48.86489       -4.4381549E-18
   48.99173       -4.4381884E-18
   49.11858       -4.4382194E-18
   49.24542       -4.4382450E-18
   49.37226       -4.4382636E-18
   49.49911       -4.4382731E-18
   49.62595       -4.4382727E-18
   49.75279       -4.4382628E-18
   49.87964       -4.4382442E-18
   50.00648       -4.4382169E-18
   50.13332       -4.4381842E-18
   50.26017       -4.4381478E-18
   50.38701       -4.4381102E-18
   50.51385       -4.4380738E-18
   50.64070       -4.4380415E-18
   50.76754       -4.4380151E-18
   50.89439       -4.4379960E-18
   51.02123       -4.4379869E-18
   51.14808       -4.4379878E-18
   51.27492       -4.4379985E-18
   51.40176       -4.4380192E-18
   51.52861       -4.4380477E-18
   51.65545       -4.4380829E-18
   51.78229       -4.4381218E-18
   51.90914       -4.4381627E-18
   52.03598       -4.4382028E-18
   52.16282       -4.4382392E-18
   52.28967       -4.4382707E-18
   52.41651       -4.4382942E-18
   52.54335       -4.4383087E-18
   52.67020       -4.4383145E-18
   52.79704       -4.4383108E-18
   52.92389       -4.4382980E-18
   53.05073       -4.4382777E-18
   53.17757       -4.4382521E-18
   53.30442       -4.4382227E-18
   53.43126       -4.4381929E-18
   53.55810       -4.4381644E-18
   53.68495       -4.4381400E-18
   53.81179       -4.4381226E-18
   53.93863       -4.4381139E-18
   54.06548       -4.4381147E-18
   54.19232       -4.4381263E-18
   54.31916       -4.4381482E-18
   54.44601       -4.4381788E-18
   54.57285       -4.4382173E-18
   54.69970       -4.4382599E-18
   54.82654       -4.4383050E-18
   54.95338       -4.4383488E-18
   55.08023       -4.4383894E-18
   55.20707       -4.4384229E-18
   55.33392       -4.4384477E-18
   55.46076       -4.4384630E-18
   55.58760       -4.4384679E-18
   55.71444       -4.4384626E-18
   55.84129       -4.4384485E-18
   55.96813       -4.4384270E-18
   56.09497       -4.4383997E-18
   56.22182       -4.4383695E-18
   56.34866       -4.4383397E-18
   56.47551       -4.4383129E-18
   56.60235       -4.4382918E-18
   56.72919       -4.4382793E-18
   56.85604       -4.4382773E-18
   56.98288       -4.4382868E-18
   57.10973       -4.4383095E-18
   57.23657       -4.4383447E-18
   57.36341       -4.4383906E-18
   57.49026       -4.4384456E-18
   57.61710       -4.4385068E-18
   57.74394       -4.4385701E-18
   57.87079       -4.4386321E-18
   57.99763       -4.4386888E-18
   58.12447       -4.4387364E-18
   58.25132       -4.4387711E-18
   58.37816       -4.4387918E-18
   58.50500       -4.4387968E-18
   58.63185       -4.4387868E-18
   58.75869       -4.4387632E-18
   58.88554       -4.4387293E-18
   59.01238       -4.4386876E-18
   59.13923       -4.4386429E-18
   59.26607       -4.4385991E-18
   59.39291       -4.4385598E-18
   59.51975       -4.4385283E-18
   59.64660       -4.4385068E-18
   59.77344       -4.4384961E-18
   59.90028       -4.4384961E-18
   60.02713       -4.4385039E-18
   60.15397       -4.4385184E-18
   60.28082       -4.4385345E-18
   60.40766       -4.4385490E-18
   60.53450       -4.4385569E-18
   60.66135       -4.4385540E-18
   60.78819       -4.4385383E-18
   60.91504       -4.4385060E-18
   61.04188       -4.4384560E-18
   61.16872       -4.4383885E-18
   61.29557       -4.4383042E-18
   61.42241       -4.4382045E-18
   61.54925       -4.4380916E-18
   61.67610       -4.4379692E-18
   61.80294       -4.4378405E-18
   61.92978       -4.4377094E-18
   62.05663       -4.4375783E-18
   62.18347       -4.4374501E-18
   62.31031       -4.4373269E-18
   62.43716       -4.4372094E-18
   62.56400       -4.4370981E-18
   62.69085       -4.4369923E-18
   62.81769       -4.4368918E-18
   62.94453       -4.4367937E-18
   63.07138       -4.4366957E-18
   63.19822       -4.4365960E-18
   63.32506       -4.4364910E-18
   63.45191       -4.4363781E-18
   63.57875       -4.4362552E-18
   63.70559       -4.4361200E-18
   63.83244       -4.4359719E-18
   63.95928       -4.4358098E-18
   64.08613       -4.4356340E-18
   64.21297       -4.4354471E-18
   64.33981       -4.4352502E-18
   64.46666       -4.4350467E-18
   64.59350       -4.4348395E-18
   64.72034       -4.4346323E-18
   64.84719       -4.4344284E-18
   64.97403       -4.4342311E-18
   65.10088       -4.4340429E-18
   65.22771       -4.4338659E-18
   65.35456       -4.4336997E-18
   65.48141       -4.4335437E-18
   65.60825       -4.4333973E-18
   65.73509       -4.4332563E-18
   65.86194       -4.4331173E-18
   65.98878       -4.4329767E-18
   66.11562       -4.4328315E-18
   66.24247       -4.4326773E-18
   66.36931       -4.4325106E-18
   66.49615       -4.4323303E-18
   66.62300       -4.4321346E-18
   66.74984       -4.4319241E-18
   66.87669       -4.4317004E-18
   67.00353       -4.4314663E-18
   67.13037       -4.4312235E-18
   67.25722       -4.4309762E-18
   67.38406       -4.4307284E-18
   67.51090       -4.4304832E-18
   67.63775       -4.4302445E-18
   67.76459       -4.4300146E-18
   67.89143       -4.4297945E-18
   68.01828       -4.4295853E-18
   68.14512       -4.4293867E-18
   68.27197       -4.4291965E-18
   68.39881       -4.4290129E-18
   68.52565       -4.4288321E-18
   68.65250       -4.4286501E-18
   68.77934       -4.4284632E-18
   68.90618       -4.4282680E-18
   69.03303       -4.4280612E-18
   69.15987       -4.4278399E-18
   69.28671       -4.4276038E-18
   69.41356       -4.4273519E-18
   69.54041       -4.4270859E-18
   69.66724       -4.4268072E-18
   69.79409       -4.4265193E-18
   69.92093       -4.4262257E-18
   70.04778       -4.4259291E-18
   70.17462       -4.4256347E-18
   70.30146       -4.4253443E-18
   70.42831       -4.4250627E-18
   70.55515       -4.4247909E-18
   70.68199       -4.4245300E-18
   70.80884       -4.4242806E-18
   70.93568       -4.4240423E-18
   71.06252       -4.4238136E-18
   71.18937       -4.4235915E-18
   71.31622       -4.4233740E-18
   71.44305       -4.4231568E-18
   71.56990       -4.4229376E-18
   71.69675       -4.4227118E-18
   71.82359       -4.4224769E-18
   71.95043       -4.4222300E-18
   72.07728       -4.4219690E-18
   72.20412       -4.4216944E-18
   72.33096       -4.4214053E-18
   72.45780       -4.4211038E-18
   72.58465       -4.4207911E-18
   72.71149       -4.4204718E-18
   72.83833       -4.4201488E-18
   72.96518       -4.4198258E-18
   73.09203       -4.4195069E-18
   73.21886       -4.4191951E-18
   73.34571       -4.4188931E-18
   73.47256       -4.4186028E-18
   73.59940       -4.4183240E-18
   73.72624       -4.4180564E-18
   73.85309       -4.4177988E-18
   73.97993       -4.4175473E-18
   74.10677       -4.4172987E-18
   74.23362       -4.4170510E-18
   74.36046       -4.4167979E-18
   74.48730       -4.4165373E-18
   74.61415       -4.4162648E-18
   74.74099       -4.4159790E-18
   74.86784       -4.4156783E-18
   74.99467       -4.4153623E-18
   75.12152       -4.4150323E-18
   75.24837       -4.4146894E-18
   75.37521       -4.4143366E-18
   75.50205       -4.4139768E-18
   75.62890       -4.4136141E-18
   75.75574       -4.4132509E-18
   75.88258       -4.4128919E-18
   76.00943       -4.4125387E-18
   76.13627       -4.4121942E-18
   76.26311       -4.4118584E-18
   76.38996       -4.4115321E-18
   76.51680       -4.4112144E-18
   76.64365       -4.4109042E-18
   76.77049       -4.4105986E-18
   76.89733       -4.4102954E-18
   77.02418       -4.4099918E-18
   77.15102       -4.4096854E-18
   77.27786       -4.4093739E-18
   77.40471       -4.4090551E-18
   77.53155       -4.4087279E-18
   77.65839       -4.4083925E-18
   77.78524       -4.4080492E-18
   77.91208       -4.4076989E-18
   78.03893       -4.4073424E-18
   78.16577       -4.4069834E-18
   78.29261       -4.4066244E-18
   78.41946       -4.4062666E-18
   78.54630       -4.4059143E-18
   78.67314       -4.4055697E-18
   78.79999       -4.4052339E-18
   78.92683       -4.4049076E-18
   79.05367       -4.4045928E-18
   79.18052       -4.4042888E-18
   79.30737       -4.4039956E-18
   79.43420       -4.4037119E-18
   79.56105       -4.4034368E-18
   79.68790       -4.4031684E-18
   79.81474       -4.4029037E-18
   79.94158       -4.4026403E-18
   80.06842       -4.4023764E-18
   80.19527       -4.4021105E-18
   80.32211       -4.4018391E-18
   80.44895       -4.4015612E-18
   80.57580       -4.4012763E-18
   80.70264       -4.4009843E-18
   80.82948       -4.4006852E-18
   80.95633       -4.4003804E-18
   81.08318       -4.4000715E-18
   81.21001       -4.3997604E-18
   81.33686       -4.3994503E-18
   81.46371       -4.3991434E-18
   81.59055       -4.3988423E-18
   81.71739       -4.3985486E-18
   81.84424       -4.3982645E-18
   81.97108       -4.3979899E-18
   82.09792       -4.3977243E-18
   82.22476       -4.3974679E-18
   82.35161       -4.3972173E-18
   82.47845       -4.3969708E-18
   82.60529       -4.3967259E-18
   82.73214       -4.3964794E-18
   82.85899       -4.3962288E-18
   82.98582       -4.3959720E-18
   83.11267       -4.3957077E-18
   83.23952       -4.3954364E-18
   83.36636       -4.3951568E-18
   83.49320       -4.3948710E-18
   83.62005       -4.3945819E-18
   83.74689       -4.3942911E-18
   83.87373       -4.3940012E-18
   84.00058       -4.3937154E-18
   84.12742       -4.3934362E-18
   84.25426       -4.3931653E-18
   84.38111       -4.3929039E-18
   84.50795       -4.3926525E-18
   84.63480       -4.3924105E-18
   84.76163       -4.3921764E-18
   84.88848       -4.3919485E-18
   85.01533       -4.3917256E-18
   85.14217       -4.3915056E-18
   85.26901       -4.3912860E-18
   85.39586       -4.3910659E-18
   85.52270       -4.3908434E-18
   85.64954       -4.3906176E-18
   85.77639       -4.3903881E-18
   85.90323       -4.3901548E-18
   86.03008       -4.3899174E-18
   86.15692       -4.3896767E-18
   86.28376       -4.3894335E-18
   86.41061       -4.3891882E-18
   86.53745       -4.3889417E-18
   86.66429       -4.3886957E-18
   86.79114       -4.3884512E-18
   86.91798       -4.3882101E-18
   87.04482       -4.3879727E-18
   87.17167       -4.3877403E-18
   87.29851       -4.3875132E-18
   87.42535       -4.3872932E-18
   87.55220       -4.3870798E-18
   87.67904       -4.3868734E-18
   87.80589       -4.3866724E-18
   87.93273       -4.3864767E-18
   88.05957       -4.3862848E-18
   88.18642       -4.3860950E-18
   88.31326       -4.3859048E-18
   88.44010       -4.3857124E-18
   88.56695       -4.3855168E-18
   88.69379       -4.3853146E-18
   88.82063       -4.3851057E-18
   88.94748       -4.3848898E-18
   89.07433       -4.3846665E-18
   89.20116       -4.3844361E-18
   89.32801       -4.3842003E-18
   89.45486       -4.3839609E-18
   89.58170       -4.3837202E-18
   89.70854       -4.3834807E-18
   89.83538       -4.3832445E-18
   89.96223       -4.3830142E-18
   90.08907       -4.3827908E-18
   90.21591       -4.3825758E-18
   90.34276       -4.3823686E-18
   90.46960       -4.3821696E-18
   90.59644       -4.3819781E-18
   90.72329       -4.3817912E-18
   90.85014       -4.3816071E-18
   90.97697       -4.3814235E-18
   91.10382       -4.3812378E-18
   91.23067       -4.3810484E-18
   91.35751       -4.3808544E-18
   91.48435       -4.3806546E-18
   91.61120       -4.3804491E-18
   91.73804       -4.3802382E-18
   91.86488       -4.3800239E-18
   91.99173       -4.3798080E-18
   92.11857       -4.3795934E-18
   92.24541       -4.3793804E-18
   92.37225       -4.3791736E-18
   92.49910       -4.3789734E-18
   92.62595       -4.3787823E-18
   92.75278       -4.3786016E-18
   92.87963       -4.3784312E-18
   93.00648       -4.3782724E-18
   93.13332       -4.3781243E-18
   93.26016       -4.3779866E-18
   93.38701       -4.3778579E-18
   93.51385       -4.3777376E-18
   93.64069       -4.3776238E-18
   93.76754       -4.3775151E-18
   93.89438       -4.3774092E-18
   94.02122       -4.3773054E-18
   94.14807       -4.3772016E-18
   94.27491       -4.3770957E-18
   94.40176       -4.3769869E-18
   94.52859       -4.3768740E-18
   94.65544       -4.3767561E-18
   94.78229       -4.3766325E-18
   94.90913       -4.3765030E-18
   95.03597       -4.3763674E-18
   95.16282       -4.3762238E-18
   95.28966       -4.3760745E-18
   95.41650       -4.3759194E-18
   95.54335       -4.3757590E-18
   95.67019       -4.3755931E-18
   95.79704       -4.3754235E-18
   95.92388       -4.3752490E-18
   96.05072       -4.3750683E-18
   96.17757       -4.3748805E-18
   96.30441       -4.3746836E-18
   96.43125       -4.3744756E-18
   96.55810       -4.3742531E-18
   96.68494       -4.3740128E-18
   96.81178       -4.3737531E-18
   96.93863       -4.3734706E-18
   97.06547       -4.3731633E-18
   97.19231       -4.3728303E-18
   97.31916       -4.3724705E-18
   97.44600       -4.3720850E-18
   97.57285       -4.3716739E-18
   97.69969       -4.3712401E-18
   97.82653       -4.3707851E-18
   97.95338       -4.3703116E-18
   98.08022       -4.3698206E-18
   98.20706       -4.3693152E-18
   98.33391       -4.3687962E-18
   98.46075       -4.3682639E-18
   98.58759       -4.3677184E-18
   98.71444       -4.3671588E-18
   98.84129       -4.3665839E-18
   98.96812       -4.3659920E-18
   99.09497       -4.3653803E-18
   99.22182       -4.3647471E-18
   99.34866       -4.3640908E-18
   99.47550       -4.3634108E-18
   99.60234       -4.3627056E-18
   99.72919       -4.3619748E-18
   99.85603       -4.3612200E-18
   99.98287       -4.3604421E-18
   100.1097       -4.3596422E-18
   100.2366       -4.3588216E-18
   100.3634       -4.3579829E-18
   100.4902       -4.3571276E-18
   100.6171       -4.3562582E-18
   100.7439       -4.3553760E-18
   100.8708       -4.3544839E-18
   100.9976       -4.3535806E-18
   101.1245       -4.3526695E-18
   101.2513       -4.3517496E-18
   101.3782       -4.3508228E-18
   101.5050       -4.3498885E-18
   101.6318       -4.3489472E-18
   101.7587       -4.3479980E-18
   101.8855       -4.3470413E-18
   102.0124       -4.3460764E-18
   102.1392       -4.3451020E-18
   102.2661       -4.3441177E-18
   102.3929       -4.3431234E-18
   102.5197       -4.3421175E-18
   102.6466       -4.3411001E-18
   102.7734       -4.3400715E-18
   102.9003       -4.3390330E-18
   103.0271       -4.3379862E-18
   103.1540       -4.3369328E-18
   103.2808       -4.3358756E-18
   103.4077       -4.3348181E-18
   103.5345       -4.3337626E-18
   103.6613       -4.3327121E-18
   103.7882       -4.3316690E-18
   103.9150       -4.3306338E-18
   104.0419       -4.3296073E-18
   104.1687       -4.3285902E-18
   104.2956       -4.3275802E-18
   104.4224       -4.3265752E-18
   104.5492       -4.3255735E-18
   104.6761       -4.3245714E-18
   104.8029       -4.3235655E-18
   104.9298       -4.3225526E-18
   105.0566       -4.3215307E-18
   105.1835       -4.3204975E-18
   105.3103       -4.3194532E-18
   105.4371       -4.3183956E-18
   105.5640       -4.3173261E-18
   105.6908       -4.3162466E-18
   105.8177       -4.3151589E-18
   105.9445       -4.3140645E-18
   106.0714       -4.3129656E-18
   106.1982       -4.3118642E-18
   106.3251       -4.3107620E-18
   106.4519       -4.3096598E-18
   106.5787       -4.3085576E-18
   106.7056       -4.3074549E-18
   106.8324       -4.3063511E-18
   106.9593       -4.3052455E-18
   107.0861       -4.3041363E-18
   107.2130       -4.3030208E-18
   107.3398       -4.3018984E-18
   107.4667       -4.3007672E-18
   107.5935       -4.2996269E-18
   107.7203       -4.2984776E-18
   107.8472       -4.2973187E-18
   107.9740       -4.2961507E-18