  -7.200000        1.0086696E-17
  -7.073156        1.0086693E-17
  -6.946313        1.0086687E-17
  -6.819469        1.0086678E-17
  -6.692626        1.0086670E-17
  -6.565782        1.0086662E-17
  -6.438938        1.0086656E-17
  -6.312095        1.0086653E-17
  -6.185251        1.0086654E-17
  -6.058407        1.0086657E-17
  -5.931563        1.0086664E-17
  -5.804720        1.0086673E-17
  -5.677876        1.0086687E-17
  -5.551033        1.0086701E-17
  -5.424189        1.0086716E-17
  -5.297346        1.0086730E-17
  -5.170502        1.0086743E-17
  -5.043658        1.0086754E-17
  -4.916814        1.0086762E-17
  -4.789971        1.0086769E-17
  -4.663127        1.0086774E-17
  -4.536283        1.0086776E-17
  -4.409440        1.0086778E-17
  -4.282596        1.0086779E-17
  -4.155753        1.0086782E-17
  -4.028909        1.0086785E-17
  -3.902065        1.0086791E-17
  -3.775222        1.0086798E-17
  -3.648378        1.0086807E-17
  -3.521534        1.0086819E-17
  -3.394691        1.0086832E-17
  -3.267847        1.0086848E-17
  -3.141004        1.0086865E-17
  -3.014160        1.0086883E-17
  -2.887316        1.0086900E-17
  -2.760473        1.0086916E-17
  -2.633629        1.0086930E-17
  -2.506785        1.0086941E-17
  -2.379942        1.0086946E-17
  -2.253098        1.0086949E-17
  -2.126254        1.0086947E-17
  -1.999411        1.0086941E-17
  -1.872567        1.0086933E-17
  -1.745723        1.0086924E-17
  -1.618880        1.0086916E-17
  -1.492036        1.0086908E-17
  -1.365193        1.0086903E-17
  -1.238349        1.0086901E-17
  -1.111505        1.0086902E-17
 -0.9846617        1.0086904E-17
 -0.8578180        1.0086908E-17
 -0.7309744        1.0086911E-17
 -0.6041307        1.0086913E-17
 -0.4772871        1.0086913E-17
 -0.3504435        1.0086912E-17
 -0.2235998        1.0086909E-17
 -9.6756198E-02    1.0086905E-17
  3.0087441E-02    1.0086901E-17
  0.1569311        1.0086896E-17
  0.2837747        1.0086892E-17
  0.4106184        1.0086888E-17
  0.5374620        1.0086884E-17
  0.6643056        1.0086879E-17
  0.7911493        1.0086874E-17
  0.9179929        1.0086869E-17
   1.044837        1.0086863E-17
   1.171680        1.0086858E-17
   1.298524        1.0086854E-17
   1.425367        1.0086850E-17
   1.552211        1.0086850E-17
   1.679055        1.0086850E-17
   1.805898        1.0086853E-17
   1.932742        1.0086856E-17
   2.059586        1.0086858E-17
   2.186429        1.0086859E-17
   2.313273        1.0086858E-17
   2.440117        1.0086855E-17
   2.566960        1.0086852E-17
   2.693804        1.0086848E-17
   2.820647        1.0086846E-17
   2.947491        1.0086847E-17
   3.074335        1.0086853E-17
   3.201178        1.0086863E-17
   3.328022        1.0086879E-17
   3.454866        1.0086898E-17
   3.581709        1.0086920E-17
   3.708553        1.0086944E-17
   3.835397        1.0086968E-17
   3.962240        1.0086990E-17
   4.089084        1.0087012E-17
   4.215928        1.0087031E-17
   4.342771        1.0087049E-17
   4.469615        1.0087067E-17
   4.596458        1.0087085E-17
   4.723302        1.0087104E-17
   4.850146        1.0087123E-17
   4.976989        1.0087142E-17
   5.103833        1.0087161E-17
   5.230677        1.0087178E-17
   5.357520        1.0087193E-17
   5.484364        1.0087206E-17
   5.611207        1.0087218E-17
   5.738051        1.0087229E-17
   5.864895        1.0087240E-17
   5.991738        1.0087254E-17
   6.118582        1.0087272E-17
   6.245426        1.0087294E-17
   6.372270        1.0087320E-17
   6.499113        1.0087349E-17
   6.625957        1.0087379E-17
   6.752800        1.0087408E-17
   6.879644        1.0087434E-17
   7.006487        1.0087456E-17
   7.133331        1.0087473E-17
   7.260175        1.0087482E-17
   7.387019        1.0087490E-17
   7.513862        1.0087494E-17
   7.640706        1.0087498E-17
   7.767550        1.0087505E-17
   7.894393        1.0087515E-17
   8.021236        1.0087529E-17
   8.148081        1.0087547E-17
   8.274924        1.0087567E-17
   8.401768        1.0087588E-17
   8.528611        1.0087608E-17
   8.655455        1.0087626E-17
   8.782298        1.0087641E-17
   8.909142        1.0087655E-17
   9.035986        1.0087664E-17
   9.162829        1.0087674E-17
   9.289673        1.0087685E-17
   9.416516        1.0087698E-17
   9.543361        1.0087713E-17
   9.670204        1.0087729E-17
   9.797048        1.0087744E-17
   9.923891        1.0087757E-17
   10.05073        1.0087766E-17
   10.17758        1.0087769E-17
   10.30442        1.0087766E-17
   10.43127        1.0087758E-17
   10.55811        1.0087745E-17
   10.68495        1.0087731E-17
   10.81180        1.0087720E-17
   10.93864        1.0087712E-17
   11.06548        1.0087711E-17
   11.19233        1.0087715E-17
   11.31917        1.0087726E-17
   11.44602        1.0087739E-17
   11.57286        1.0087753E-17
   11.69970        1.0087765E-17
   11.82655        1.0087772E-17
   11.95339        1.0087774E-17
   12.08023        1.0087770E-17
   12.20708        1.0087763E-17
   12.33392        1.0087754E-17
   12.46076        1.0087745E-17
   12.58761        1.0087737E-17
   12.71445        1.0087734E-17
   12.84130        1.0087734E-17
   12.96814        1.0087736E-17
   13.09498        1.0087741E-17
   13.22183        1.0087744E-17
   13.34867        1.0087746E-17
   13.47551        1.0087745E-17
   13.60236        1.0087742E-17
   13.72920        1.0087739E-17
   13.85604        1.0087738E-17
   13.98289        1.0087741E-17
   14.10973        1.0087748E-17
   14.23658        1.0087761E-17
   14.36342        1.0087779E-17
   14.49026        1.0087800E-17
   14.61711        1.0087820E-17
   14.74395        1.0087836E-17
   14.87079        1.0087846E-17
   14.99764        1.0087848E-17
   15.12448        1.0087844E-17
   15.25132        1.0087834E-17
   15.37817        1.0087822E-17
   15.50501        1.0087809E-17
   15.63186        1.0087801E-17
   15.75870        1.0087797E-17
   15.88554        1.0087801E-17
   16.01239        1.0087812E-17
   16.13923        1.0087827E-17
   16.26607        1.0087846E-17
   16.39292        1.0087866E-17
   16.51976        1.0087885E-17
   16.64660        1.0087902E-17
   16.77345        1.0087917E-17
   16.90029        1.0087930E-17
   17.02714        1.0087944E-17
   17.15398        1.0087959E-17
   17.28082        1.0087976E-17
   17.40767        1.0087996E-17
   17.53451        1.0088017E-17
   17.66135        1.0088038E-17
   17.78820        1.0088057E-17
   17.91504        1.0088072E-17
   18.04188        1.0088082E-17
   18.16873        1.0088086E-17
   18.29557        1.0088087E-17
   18.42241        1.0088085E-17
   18.54926        1.0088083E-17
   18.67610        1.0088085E-17
   18.80295        1.0088093E-17
   18.92979        1.0088108E-17
   19.05663        1.0088131E-17
   19.18348        1.0088159E-17
   19.31032        1.0088191E-17
   19.43716        1.0088222E-17
   19.56401        1.0088250E-17
   19.69085        1.0088273E-17
   19.81770        1.0088290E-17
   19.94454        1.0088301E-17
   20.07138        1.0088308E-17
   20.19823        1.0088311E-17
   20.32507        1.0088314E-17
   20.45191        1.0088317E-17
   20.57876        1.0088323E-17
   20.70560        1.0088330E-17
   20.83245        1.0088338E-17
   20.95929        1.0088344E-17
   21.08613        1.0088348E-17
   21.21297        1.0088348E-17
   21.33982        1.0088344E-17
   21.46666        1.0088337E-17
   21.59351        1.0088329E-17
   21.72035        1.0088322E-17
   21.84719        1.0088320E-17
   21.97404        1.0088322E-17
   22.10088        1.0088332E-17
   22.22772        1.0088348E-17
   22.35457        1.0088368E-17
   22.48141        1.0088390E-17
   22.60826        1.0088411E-17
   22.73510        1.0088427E-17
   22.86194        1.0088437E-17
   22.98879        1.0088440E-17
   23.11563        1.0088438E-17
   23.24247        1.0088432E-17
   23.36932        1.0088425E-17
   23.49616        1.0088420E-17
   23.62300        1.0088418E-17
   23.74985        1.0088421E-17
   23.87669        1.0088430E-17
   24.00353        1.0088441E-17
   24.13038        1.0088454E-17
   24.25722        1.0088466E-17
   24.38407        1.0088476E-17
   24.51091        1.0088482E-17
   24.63775        1.0088486E-17
   24.76460        1.0088487E-17
   24.89144        1.0088489E-17
   25.01828        1.0088493E-17
   25.14513        1.0088502E-17
   25.27197        1.0088514E-17
   25.39882        1.0088530E-17
   25.52566        1.0088548E-17
   25.65250        1.0088565E-17
   25.77935        1.0088578E-17
   25.90619        1.0088587E-17
   26.03303        1.0088588E-17
   26.15988        1.0088583E-17
   26.28672        1.0088572E-17
   26.41356        1.0088558E-17
   26.54041        1.0088544E-17
   26.66725        1.0088532E-17
   26.79410        1.0088526E-17
   26.92094        1.0088525E-17
   27.04778        1.0088529E-17
   27.17463        1.0088537E-17
   27.30147        1.0088548E-17
   27.42831        1.0088558E-17
   27.55516        1.0088566E-17
   27.68200        1.0088572E-17
   27.80884        1.0088575E-17
   27.93569        1.0088576E-17
   28.06253        1.0088577E-17
   28.18937        1.0088579E-17
   28.31622        1.0088584E-17
   28.44306        1.0088593E-17
   28.56991        1.0088603E-17
   28.69675        1.0088615E-17
   28.82359        1.0088627E-17
   28.95044        1.0088636E-17
   29.07728        1.0088642E-17
   29.20412        1.0088644E-17
   29.33097        1.0088641E-17
   29.45781        1.0088636E-17
   29.58466        1.0088629E-17
   29.71150        1.0088624E-17
   29.83834        1.0088621E-17
   29.96519        1.0088624E-17
   30.09203        1.0088631E-17
   30.21887        1.0088642E-17
   30.34572        1.0088657E-17
   30.47256        1.0088673E-17
   30.59941        1.0088688E-17
   30.72625        1.0088703E-17
   30.85309        1.0088716E-17
   30.97993        1.0088727E-17
   31.10678        1.0088735E-17
   31.23362        1.0088743E-17
   31.36047        1.0088751E-17
   31.48731        1.0088760E-17
   31.61415        1.0088771E-17
   31.74100        1.0088784E-17
   31.86784        1.0088797E-17
   31.99468        1.0088809E-17
   32.12153        1.0088819E-17
   32.24837        1.0088827E-17
   32.37521        1.0088832E-17
   32.50206        1.0088834E-17
   32.62890        1.0088835E-17
   32.75574        1.0088836E-17
   32.88259        1.0088837E-17
   33.00943        1.0088839E-17
   33.13628        1.0088845E-17
   33.26312        1.0088852E-17
   33.38997        1.0088863E-17
   33.51681        1.0088874E-17
   33.64365        1.0088885E-17
   33.77050        1.0088896E-17
   33.89734        1.0088905E-17
   34.02418        1.0088913E-17
   34.15103        1.0088918E-17
   34.27787        1.0088922E-17
   34.40471        1.0088923E-17
   34.53156        1.0088925E-17
   34.65840        1.0088927E-17
   34.78524        1.0088929E-17
   34.91209        1.0088932E-17
   35.03893        1.0088934E-17
   35.16578        1.0088936E-17
   35.29262        1.0088937E-17
   35.41946        1.0088937E-17
   35.54631        1.0088937E-17
   35.67315        1.0088936E-17
   35.80000        1.0088935E-17
   35.92684        1.0088933E-17
   36.05368        1.0088934E-17
   36.18052        1.0088936E-17
   36.30737        1.0088938E-17
   36.43421        1.0088942E-17
   36.56105        1.0088947E-17
   36.68790        1.0088951E-17
   36.81474        1.0088954E-17
   36.94159        1.0088956E-17
   37.06843        1.0088957E-17
   37.19527        1.0088956E-17
   37.32212        1.0088953E-17
   37.44896        1.0088947E-17
   37.57581        1.0088942E-17
   37.70265        1.0088937E-17
   37.82949        1.0088931E-17
   37.95634        1.0088927E-17
   38.08318        1.0088923E-17
   38.21002        1.0088923E-17
   38.33687        1.0088923E-17
   38.46371        1.0088926E-17
   38.59055        1.0088929E-17
   38.71740        1.0088933E-17
   38.84424        1.0088937E-17
   38.97108        1.0088942E-17
   39.09793        1.0088946E-17
   39.22477        1.0088950E-17
   39.35162        1.0088954E-17
   39.47846        1.0088959E-17
   39.60530        1.0088964E-17
   39.73215        1.0088970E-17
   39.85899        1.0088976E-17
   39.98583        1.0088983E-17
   40.11268        1.0088989E-17
   40.23952        1.0088993E-17
   40.36636        1.0088995E-17
   40.49321        1.0088996E-17
   40.62005        1.0088995E-17
   40.74689        1.0088992E-17
   40.87374        1.0088988E-17
   41.00058        1.0088985E-17
   41.12743        1.0088983E-17
   41.25427        1.0088983E-17
   41.38111        1.0088985E-17
   41.50796        1.0088990E-17
   41.63480        1.0088997E-17
   41.76165        1.0089004E-17
   41.88849        1.0089013E-17
   42.01533        1.0089019E-17
   42.14218        1.0089025E-17
   42.26902        1.0089029E-17
   42.39586        1.0089030E-17
   42.52271        1.0089029E-17
   42.64955        1.0089028E-17
   42.77639        1.0089026E-17
   42.90324        1.0089025E-17
   43.03008        1.0089025E-17
   43.15693        1.0089026E-17
   43.28377        1.0089028E-17
   43.41061        1.0089029E-17
   43.53746        1.0089029E-17
   43.66430        1.0089028E-17
   43.79114        1.0089024E-17
   43.91799        1.0089019E-17
   44.04483        1.0089013E-17
   44.17167        1.0089007E-17
   44.29852        1.0089003E-17
   44.42536        1.0089003E-17
   44.55220        1.0089006E-17
   44.67905        1.0089014E-17
   44.80589        1.0089026E-17
   44.93274        1.0089038E-17
   45.05958        1.0089052E-17
   45.18642        1.0089062E-17
   45.31327        1.0089070E-17
   45.44011        1.0089073E-17
   45.56696        1.0089071E-17
   45.69380        1.0089067E-17
   45.82064        1.0089061E-17
   45.94748        1.0089055E-17
   46.07433        1.0089051E-17
   46.20117        1.0089049E-17
   46.32801        1.0089051E-17
   46.45486        1.0089056E-17
   46.58170        1.0089062E-17
   46.70855        1.0089069E-17
   46.83539        1.0089073E-17
   46.96223        1.0089074E-17
   47.08908        1.0089072E-17
   47.21592        1.0089067E-17
   47.34277        1.0089062E-17
   47.46961        1.0089055E-17
   47.59645        1.0089051E-17
   47.72330        1.0089049E-17
   47.85014        1.0089052E-17
   47.97698        1.0089057E-17
   48.10383        1.0089064E-17
   48.23067        1.0089070E-17
   48.35751        1.0089073E-17
   48.48436        1.0089072E-17
   48.61120        1.0089068E-17
   48.73804        1.0089059E-17
   48.86489        1.0089047E-17
   48.99173        1.0089033E-17
   49.11858        1.0089021E-17
   49.24542        1.0089013E-17
   49.37226        1.0089008E-17
   49.49911        1.0089010E-17
   49.62595        1.0089017E-17
   49.75279        1.0089025E-17
   49.87964        1.0089033E-17
   50.00648        1.0089039E-17
   50.13332        1.0089041E-17
   50.26017        1.0089038E-17
   50.38701        1.0089030E-17
   50.51385        1.0089019E-17
   50.64070        1.0089008E-17
   50.76754        1.0088998E-17
   50.89439        1.0088992E-17
   51.02123        1.0088990E-17
   51.14808        1.0088994E-17
   51.27492        1.0089001E-17
   51.40176        1.0089010E-17
   51.52861        1.0089018E-17
   51.65545        1.0089023E-17
   51.78229        1.0089023E-17
   51.90914        1.0089020E-17
   52.03598        1.0089013E-17
   52.16282        1.0089004E-17
   52.28967        1.0088997E-17
   52.41651        1.0088993E-17
   52.54335        1.0088994E-17
   52.67020        1.0088999E-17
   52.79704        1.0089007E-17
   52.92389        1.0089016E-17
   53.05073        1.0089024E-17
   53.17757        1.0089028E-17
   53.30442        1.0089025E-17
   53.43126        1.0089016E-17
   53.55810        1.0089001E-17
   53.68495        1.0088980E-17
   53.81179        1.0088960E-17
   53.93863        1.0088939E-17
   54.06548        1.0088923E-17
   54.19232        1.0088913E-17
   54.31916        1.0088909E-17
   54.44601        1.0088908E-17
   54.57285        1.0088909E-17
   54.69970        1.0088912E-17
   54.82654        1.0088911E-17
   54.95338        1.0088907E-17
   55.08023        1.0088899E-17
   55.20707        1.0088886E-17
   55.33392        1.0088872E-17
   55.46076        1.0088859E-17
   55.58760        1.0088850E-17
   55.71444        1.0088846E-17
   55.84129        1.0088847E-17
   55.96813        1.0088853E-17
   56.09497        1.0088864E-17
   56.22182        1.0088875E-17
   56.34866        1.0088886E-17
   56.47551        1.0088894E-17
   56.60235        1.0088898E-17
   56.72919        1.0088899E-17
   56.85604        1.0088899E-17
   56.98288        1.0088901E-17
   57.10973        1.0088910E-17
   57.23657        1.0088927E-17
   57.36341        1.0088952E-17
   57.49026        1.0088986E-17
   57.61710        1.0089028E-17
   57.74394        1.0089074E-17
   57.87079        1.0089120E-17
   57.99763        1.0089163E-17
   58.12447        1.0089201E-17
   58.25132        1.0089232E-17
   58.37816        1.0089256E-17
   58.50500        1.0089275E-17
   58.63185        1.0089291E-17
   58.75869        1.0089305E-17
   58.88554        1.0089318E-17
   59.01238        1.0089330E-17
   59.13923        1.0089339E-17
   59.26607        1.0089341E-17
   59.39291        1.0089335E-17
   59.51975        1.0089316E-17
   59.64660        1.0089282E-17
   59.77344        1.0089231E-17
   59.90028        1.0089162E-17
   60.02713        1.0089078E-17
   60.15397        1.0088980E-17
   60.28082        1.0088868E-17
   60.40766        1.0088745E-17
   60.53450        1.0088609E-17
   60.66135        1.0088462E-17
   60.78819        1.0088299E-17
   60.91504        1.0088119E-17
   61.04188        1.0087917E-17
   61.16872        1.0087693E-17
   61.29557        1.0087444E-17
   61.42241        1.0087173E-17
   61.54925        1.0086881E-17
   61.67610        1.0086571E-17
   61.80294        1.0086244E-17
   61.92978        1.0085904E-17
   62.05663        1.0085553E-17
   62.18347        1.0085192E-17
   62.31031        1.0084818E-17
   62.43716        1.0084432E-17
   62.56400        1.0084029E-17
   62.69085        1.0083608E-17
   62.81769        1.0083169E-17
   62.94453        1.0082710E-17
   63.07138        1.0082234E-17
   63.19822        1.0081744E-17
   63.32506        1.0081241E-17
   63.45191        1.0080729E-17
   63.57875        1.0080209E-17
   63.70559        1.0079683E-17
   63.83244        1.0079149E-17
   63.95928        1.0078604E-17
   64.08613        1.0078050E-17
   64.21297        1.0077483E-17
   64.33981        1.0076900E-17
   64.46666        1.0076304E-17
   64.59350        1.0075695E-17
   64.72034        1.0075076E-17
   64.84719        1.0074449E-17
   64.97403        1.0073818E-17
   65.10088        1.0073187E-17
   65.22771        1.0072557E-17
   65.35456        1.0071928E-17
   65.48141        1.0071301E-17
   65.60825        1.0070675E-17
   65.73509        1.0070046E-17
   65.86194        1.0069414E-17
   65.98878        1.0068778E-17
   66.11562        1.0068136E-17
   66.24247        1.0067491E-17
   66.36931        1.0066844E-17
   66.49615        1.0066198E-17
   66.62300        1.0065555E-17
   66.74984        1.0064915E-17
   66.87669        1.0064282E-17
   67.00353        1.0063654E-17
   67.13037        1.0063028E-17
   67.25722        1.0062402E-17
   67.38406        1.0061775E-17
   67.51090        1.0061144E-17
   67.63775        1.0060509E-17
   67.76459        1.0059870E-17
   67.89143        1.0059228E-17
   68.01828        1.0058585E-17
   68.14512        1.0057945E-17
   68.27197        1.0057310E-17
   68.39881        1.0056681E-17
   68.52565        1.0056058E-17
   68.65250        1.0055441E-17
   68.77934        1.0054828E-17
   68.90618        1.0054217E-17
   69.03303        1.0053605E-17
   69.15987        1.0052992E-17
   69.28671        1.0052377E-17
   69.41356        1.0051760E-17
   69.54041        1.0051143E-17
   69.66724        1.0050527E-17
   69.79409        1.0049915E-17
   69.92093        1.0049309E-17
   70.04778        1.0048708E-17
   70.17462        1.0048114E-17
   70.30146        1.0047522E-17
   70.42831        1.0046934E-17
   70.55515        1.0046346E-17
   70.68199        1.0045757E-17
   70.80884        1.0045166E-17
   70.93568        1.0044572E-17
   71.06252        1.0043979E-17
   71.18937        1.0043386E-17
   71.31622        1.0042797E-17
   71.44305        1.0042213E-17
   71.56990        1.0041637E-17
   71.69675        1.0041068E-17
   71.82359        1.0040506E-17
   71.95043        1.0039950E-17
   72.07728        1.0039397E-17
   72.20412        1.0038845E-17
   72.33096        1.0038293E-17
   72.45780        1.0037737E-17
   72.58465        1.0037177E-17
   72.71149        1.0036613E-17
   72.83833        1.0036049E-17
   72.96518        1.0035485E-17
   73.09203        1.0034923E-17
   73.21886        1.0034363E-17
   73.34571        1.0033808E-17
   73.47256        1.0033255E-17
   73.59940        1.0032702E-17
   73.72624        1.0032147E-17
   73.85309        1.0031587E-17
   73.97993        1.0031020E-17
   74.10677        1.0030444E-17
   74.23362        1.0029859E-17
   74.36046        1.0029267E-17
   74.48730        1.0028668E-17
   74.61415        1.0028065E-17
   74.74099        1.0027457E-17
   74.86784        1.0026848E-17
   74.99467        1.0026234E-17
   75.12152        1.0025616E-17
   75.24837        1.0024991E-17
   75.37521        1.0024355E-17
   75.50205        1.0023708E-17
   75.62890        1.0023048E-17
   75.75574        1.0022376E-17
   75.88258        1.0021693E-17
   76.00943        1.0021000E-17
   76.13627        1.0020302E-17
   76.26311        1.0019601E-17
   76.38996        1.0018897E-17
   76.51680        1.0018193E-17
   76.64365        1.0017488E-17
   76.77049        1.0016783E-17
   76.89733        1.0016073E-17
   77.02418        1.0015361E-17
   77.15102        1.0014645E-17
   77.27786        1.0013925E-17
   77.40471        1.0013200E-17
   77.53155        1.0012475E-17
   77.65839        1.0011749E-17
   77.78524        1.0011027E-17
   77.91208        1.0010311E-17
   78.03893        1.0009603E-17
   78.16577        1.0008904E-17
   78.29261        1.0008215E-17
   78.41946        1.0007533E-17
   78.54630        1.0006859E-17
   78.67314        1.0006191E-17
   78.79999        1.0005529E-17
   78.92683        1.0004872E-17
   79.05367        1.0004221E-17
   79.18052        1.0003580E-17
   79.30737        1.0002949E-17
   79.43420        1.0002330E-17
   79.56105        1.0001725E-17
   79.68790        1.0001135E-17
   79.81474        1.0000557E-17
   79.94158        9.9999940E-18
   80.06842        9.9994398E-18
   80.19527        9.9988939E-18
   80.32211        9.9983529E-18
   80.44895        9.9978186E-18
   80.57580        9.9972883E-18
   80.70264        9.9967639E-18
   80.82948        9.9962486E-18
   80.95633        9.9957423E-18
   81.08318        9.9952485E-18
   81.21001        9.9947671E-18
   81.33686        9.9942989E-18
   81.46371        9.9938423E-18
   81.59055        9.9933965E-18
   81.71739        9.9929572E-18
   81.84424        9.9925230E-18
   81.97108        9.9920920E-18
   82.09792        9.9916619E-18
   82.22476        9.9912334E-18
   82.35161        9.9908057E-18
   82.47845        9.9903814E-18
   82.60529        9.9899612E-18
   82.73214        9.9895468E-18
   82.85899        9.9891390E-18
   82.98582        9.9887369E-18
   83.11267        9.9883391E-18
   83.23952        9.9879445E-18
   83.36636        9.9875499E-18
   83.49320        9.9871562E-18
   83.62005        9.9867616E-18
   83.74689        9.9863662E-18
   83.87373        9.9859733E-18
   84.00058        9.9855837E-18
   84.12742        9.9852007E-18
   84.25426        9.9848269E-18
   84.38111        9.9844629E-18
   84.50795        9.9841097E-18
   84.63480        9.9837672E-18
   84.76163        9.9834322E-18
   84.88848        9.9831038E-18
   85.01533        9.9827796E-18
   85.14217        9.9824578E-18
   85.26901        9.9821377E-18
   85.39586        9.9818201E-18
   85.52270        9.9815041E-18
   85.64954        9.9811922E-18
   85.77639        9.9808862E-18
   85.90323        9.9805859E-18
   86.03008        9.9802923E-18
   86.15692        9.9800052E-18
   86.28376        9.9797232E-18
   86.41061        9.9794427E-18
   86.53745        9.9791623E-18
   86.66429        9.9788794E-18
   86.79114        9.9785924E-18
   86.91798        9.9783012E-18
   87.04482        9.9780068E-18
   87.17167        9.9777106E-18
   87.29851        9.9774153E-18
   87.42535        9.9771225E-18
   87.55220        9.9768330E-18
   87.67904        9.9765468E-18
   87.80589        9.9762639E-18
   87.93273        9.9759818E-18
   88.05957        9.9756973E-18
   88.18642        9.9754078E-18
   88.31326        9.9751125E-18
   88.44010        9.9748105E-18
   88.56695        9.9745003E-18
   88.69379        9.9741844E-18
   88.82063        9.9738651E-18
   88.94748        9.9735441E-18
   89.07433        9.9732248E-18
   89.20116        9.9729072E-18
   89.32801        9.9725929E-18
   89.45486        9.9722802E-18
   89.58170        9.9719675E-18
   89.70854        9.9716524E-18
   89.83538        9.9713314E-18
   89.96223        9.9710047E-18
   90.08907        9.9706713E-18
   90.21591        9.9703314E-18
   90.34276        9.9699881E-18
   90.46960        9.9696423E-18
   90.59644        9.9692974E-18
   90.72329        9.9689557E-18
   90.85014        9.9686166E-18
   90.97697        9.9682816E-18
   91.10382        9.9679482E-18
   91.23067        9.9676149E-18
   91.35751        9.9672791E-18
   91.48435        9.9669391E-18
   91.61120        9.9665941E-18
   91.73804        9.9662451E-18
   91.86488        9.9658935E-18
   91.99173        9.9655428E-18
   92.11857        9.9651962E-18
   92.24541        9.9648571E-18
   92.37225        9.9645262E-18
   92.49910        9.9642061E-18
   92.62595        9.9638959E-18
   92.75278        9.9635940E-18
   92.87963        9.9633003E-18
   93.00648        9.9630100E-18
   93.13332        9.9627246E-18
   93.26016        9.9624434E-18
   93.38701        9.9621671E-18
   93.51385        9.9618974E-18
   93.64069        9.9616369E-18
   93.76754        9.9613862E-18
   93.89438        9.9611472E-18
   94.02122        9.9609180E-18
   94.14807        9.9606980E-18
   94.27491        9.9604846E-18
   94.40176        9.9602737E-18
   94.52859        9.9600611E-18
   94.65544        9.9598444E-18
   94.78229        9.9596202E-18
   94.90913        9.9593878E-18
   95.03597        9.9591479E-18
   95.16282        9.9589014E-18
   95.28966        9.9586483E-18
   95.41650        9.9583902E-18
   95.54335        9.9581255E-18
   95.67019        9.9578533E-18
   95.79704        9.9575713E-18
   95.92388        9.9572760E-18
   96.05072        9.9569649E-18
   96.17757        9.9566349E-18
   96.30441        9.9562842E-18
   96.43125        9.9559136E-18
   96.55810        9.9555223E-18
   96.68494        9.9551129E-18
   96.81178        9.9546877E-18
   96.93863        9.9542460E-18
   97.06547        9.9537902E-18
   97.19231        9.9533196E-18
   97.31916        9.9528340E-18
   97.44600        9.9523311E-18
   97.57285        9.9518083E-18
   97.69969        9.9512632E-18
   97.82653        9.9506957E-18
   97.95338        9.9501035E-18
   98.08022        9.9494897E-18
   98.20706        9.9488553E-18
   98.33391        9.9482026E-18
   98.46075        9.9475318E-18
   98.58759        9.9468452E-18
   98.71444        9.9461438E-18
   98.84129        9.9454258E-18
   98.96812        9.9446904E-18
   99.09497        9.9439352E-18
   99.22182        9.9431568E-18
   99.34866        9.9423536E-18
   99.47550        9.9415256E-18
   99.60234        9.9406720E-18
   99.72919        9.9397935E-18
   99.85603        9.9388919E-18
   99.98287        9.9379696E-18
   100.1097        9.9370274E-18
   100.2366        9.9360670E-18
   100.3634        9.9350885E-18
   100.4902        9.9340926E-18
   100.6171        9.9330768E-18
   100.7439        9.9320420E-18
   100.8708        9.9309873E-18
   100.9976        9.9299137E-18
   101.1245        9.9288201E-18
   101.2513        9.9277092E-18
   101.3782        9.9265826E-18
   101.5050        9.9254427E-18
   101.6318        9.9242930E-18
   101.7587        9.9231341E-18
   101.8855        9.9219694E-18
   102.0124        9.9207981E-18
   102.1392        9.9196235E-18
   102.2661        9.9184431E-18
   102.3929        9.9172578E-18
   102.5197        9.9160675E-18
   102.6466        9.9148730E-18
   102.7734        9.9136753E-18
   102.9003        9.9124759E-18
   103.0271        9.9112781E-18
   103.1540        9.9100845E-18
   103.2808        9.9088966E-18
   103.4077        9.9077179E-18
   103.5345        9.9065499E-18
   103.6613        9.9053919E-18
   103.7882        9.9042454E-18
   103.9150        9.9031089E-18
   104.0419        9.9019814E-18
   104.1687        9.9008622E-18
   104.2956        9.8997505E-18
   104.4224        9.8986471E-18
   104.5492        9.8975519E-18
   104.6761        9.8964649E-18
   104.8029        9.8953871E-18
   104.9298        9.8943176E-18
   105.0566        9.8932580E-18
   105.1835        9.8922058E-18
   105.3103        9.8911602E-18
   105.4371        9.8901180E-18
   105.5640        9.8890774E-18
   105.6908        9.8880360E-18
   105.8177        9.8869904E-18
   105.9445        9.8859416E-18
   106.0714        9.8848869E-18
   106.1982        9.8838289E-18
   106.3251        9.8827668E-18
   106.4519        9.8817039E-18
   106.5787        9.8806393E-18
   106.7056        9.8795739E-18
   106.8324        9.8785085E-18
   106.9593        9.8774406E-18
   107.0861        9.8763719E-18
   107.2130        9.8752999E-18
   107.3398        9.8742237E-18
   107.4667        9.8731418E-18
   107.5935        9.8720548E-18
   107.7203        9.8709646E-18
   107.8472        9.8698711E-18
   107.9740        9.8687767E-18