  -7.200000       -3.3364296E-19
  -7.073156       -3.3362606E-19
  -6.946313       -3.3359320E-19
  -6.819469       -3.3354652E-19
  -6.692626       -3.3348766E-19
  -6.565782       -3.3341937E-19
  -6.438938       -3.3334539E-19
  -6.312095       -3.3326874E-19
  -6.185251       -3.3319368E-19
  -6.058407       -3.3312274E-19
  -5.931563       -3.3305947E-19
  -5.804720       -3.3300560E-19
  -5.677876       -3.3296328E-19
  -5.551033       -3.3293257E-19
  -5.424189       -3.3291380E-19
  -5.297346       -3.3290618E-19
  -5.170502       -3.3290791E-19
  -5.043658       -3.3291644E-19
  -4.916814       -3.3292882E-19
  -4.789971       -3.3294064E-19
  -4.663127       -3.3294981E-19
  -4.536283       -3.3295167E-19
  -4.409440       -3.3294376E-19
  -4.282596       -3.3292254E-19
  -4.155753       -3.3288643E-19
  -4.028909       -3.3283302E-19
  -3.902065       -3.3276253E-19
  -3.775222       -3.3267428E-19
  -3.648378       -3.3256946E-19
  -3.521534       -3.3244952E-19
  -3.394691       -3.3231767E-19
  -3.267847       -3.3217661E-19
  -3.141004       -3.3203004E-19
  -3.014160       -3.3188208E-19
  -2.887316       -3.3173742E-19
  -2.760473       -3.3159954E-19
  -2.633629       -3.3147260E-19
  -2.506785       -3.3135951E-19
  -2.379942       -3.3126249E-19
  -2.253098       -3.3118370E-19
  -2.126254       -3.3112288E-19
  -1.999411       -3.3108015E-19
  -1.872567       -3.3105360E-19
  -1.745723       -3.3104050E-19
  -1.618880       -3.3103667E-19
  -1.492036       -3.3103952E-19
  -1.365193       -3.3104357E-19
  -1.238349       -3.3104588E-19
  -1.111505       -3.3104210E-19
 -0.9846617       -3.3102845E-19
 -0.8578180       -3.3100356E-19
 -0.7309744       -3.3096634E-19
 -0.6041307       -3.3091668E-19
 -0.4772871       -3.3085635E-19
 -0.3504435       -3.3078816E-19
 -0.2235998       -3.3071596E-19
 -9.6756198E-02   -3.3064436E-19
  3.0087441E-02   -3.3057898E-19
  0.1569311       -3.3052460E-19
  0.2837747       -3.3048686E-19
  0.4106184       -3.3046964E-19
  0.5374620       -3.3047582E-19
  0.6643056       -3.3050679E-19
  0.7911493       -3.3056275E-19
  0.9179929       -3.3064157E-19
   1.044837       -3.3074010E-19
   1.171680       -3.3085348E-19
   1.298524       -3.3097562E-19
   1.425367       -3.3110018E-19
   1.552211       -3.3121945E-19
   1.679055       -3.3132694E-19
   1.805898       -3.3141720E-19
   1.932742       -3.3148532E-19
   2.059586       -3.3152864E-19
   2.186429       -3.3154552E-19
   2.313273       -3.3153629E-19
   2.440117       -3.3150325E-19
   2.566960       -3.3145024E-19
   2.693804       -3.3138215E-19
   2.820647       -3.3130512E-19
   2.947491       -3.3122594E-19
   3.074335       -3.3115095E-19
   3.201178       -3.3108589E-19
   3.328022       -3.3103691E-19
   3.454866       -3.3100720E-19
   3.581709       -3.3099852E-19
   3.708553       -3.3101204E-19
   3.835397       -3.3104634E-19
   3.962240       -3.3109819E-19
   4.089084       -3.3116385E-19
   4.215928       -3.3123822E-19
   4.342771       -3.3131533E-19
   4.469615       -3.3138900E-19
   4.596458       -3.3145461E-19
   4.723302       -3.3150623E-19
   4.850146       -3.3154092E-19
   4.976989       -3.3155534E-19
   5.103833       -3.3154839E-19
   5.230677       -3.3152019E-19
   5.357520       -3.3147239E-19
   5.484364       -3.3140797E-19
   5.611207       -3.3133076E-19
   5.738051       -3.3124528E-19
   5.864895       -3.3115783E-19
   5.991738       -3.3107397E-19
   6.118582       -3.3099873E-19
   6.245426       -3.3093596E-19
   6.372270       -3.3089011E-19
   6.499113       -3.3086322E-19
   6.625957       -3.3085599E-19
   6.752800       -3.3086803E-19
   6.879644       -3.3089778E-19
   7.006487       -3.3094188E-19
   7.133331       -3.3099663E-19
   7.260175       -3.3105629E-19
   7.387019       -3.3111606E-19
   7.513862       -3.3117037E-19
   7.640706       -3.3121415E-19
   7.767550       -3.3124424E-19
   7.894393       -3.3125634E-19
   8.021236       -3.3124970E-19
   8.148081       -3.3122307E-19
   8.274924       -3.3117817E-19
   8.401768       -3.3111719E-19
   8.528611       -3.3104246E-19
   8.655455       -3.3095936E-19
   8.782298       -3.3087219E-19
   8.909142       -3.3078573E-19
   9.035986       -3.3070484E-19
   9.162829       -3.3063397E-19
   9.289673       -3.3057730E-19
   9.416516       -3.3053726E-19
   9.543361       -3.3051601E-19
   9.670204       -3.3051392E-19
   9.797048       -3.3052987E-19
   9.923891       -3.3056143E-19
   10.05073       -3.3060563E-19
   10.17758       -3.3065770E-19
   10.30442       -3.3071322E-19
   10.43127       -3.3076735E-19
   10.55811       -3.3081538E-19
   10.68495       -3.3085322E-19
   10.81180       -3.3087741E-19
   10.93864       -3.3088525E-19
   11.06548       -3.3087698E-19
   11.19233       -3.3085162E-19
   11.31917       -3.3081160E-19
   11.44602       -3.3076006E-19
   11.57286       -3.3069986E-19
   11.69970       -3.3063668E-19
   11.82655       -3.3057454E-19
   11.95339       -3.3051772E-19
   12.08023       -3.3047067E-19
   12.20708       -3.3043575E-19
   12.33392       -3.3041528E-19
   12.46076       -3.3040970E-19
   12.58761       -3.3041838E-19
   12.71445       -3.3043984E-19
   12.84130       -3.3047124E-19
   12.96814       -3.3050847E-19
   13.09498       -3.3054789E-19
   13.22183       -3.3058441E-19
   13.34867       -3.3061440E-19
   13.47551       -3.3063415E-19
   13.60236       -3.3064169E-19
   13.72920       -3.3063412E-19
   13.85604       -3.3061148E-19
   13.98289       -3.3057477E-19
   14.10973       -3.3052514E-19
   14.23658       -3.3046610E-19
   14.36342       -3.3040065E-19
   14.49026       -3.3033287E-19
   14.61711       -3.3026750E-19
   14.74395       -3.3020737E-19
   14.87079       -3.3015676E-19
   14.99764       -3.3011845E-19
   15.12448       -3.3009431E-19
   15.25132       -3.3008415E-19
   15.37817       -3.3008893E-19
   15.50501       -3.3010715E-19
   15.63186       -3.3013680E-19
   15.75870       -3.3017560E-19
   15.88554       -3.3021957E-19
   16.01239       -3.3026569E-19
   16.13923       -3.3031025E-19
   16.26607       -3.3034983E-19
   16.39292       -3.3038211E-19
   16.51976       -3.3040520E-19
   16.64660       -3.3041748E-19
   16.77345       -3.3041828E-19
   16.90029       -3.3040838E-19
   17.02714       -3.3038948E-19
   17.15398       -3.3036319E-19
   17.28082       -3.3033238E-19
   17.40767       -3.3029976E-19
   17.53451       -3.3026747E-19
   17.66135       -3.3023829E-19
   17.78820       -3.3021487E-19
   17.91504       -3.3019825E-19
   18.04188       -3.3018941E-19
   18.16873       -3.3018757E-19
   18.29557       -3.3019207E-19
   18.42241       -3.3020171E-19
   18.54926       -3.3021384E-19
   18.67610       -3.3022598E-19
   18.80295       -3.3023676E-19
   18.92979       -3.3024304E-19
   19.05663       -3.3024470E-19
   19.18348       -3.3023979E-19
   19.31032       -3.3022898E-19
   19.43716       -3.3021259E-19
   19.56401       -3.3019142E-19
   19.69085       -3.3016798E-19
   19.81770       -3.3014471E-19
   19.94454       -3.3012316E-19
   20.07138       -3.3010633E-19
   20.19823       -3.3009599E-19
   20.32507       -3.3009314E-19
   20.45191       -3.3009904E-19
   20.57876       -3.3011269E-19
   20.70560       -3.3013357E-19
   20.83245       -3.3016056E-19
   20.95929       -3.3019075E-19
   21.08613       -3.3022270E-19
   21.21297       -3.3025300E-19
   21.33982       -3.3027962E-19
   21.46666       -3.3029940E-19
   21.59351       -3.3031126E-19
   21.72035       -3.3031457E-19
   21.84719       -3.3030881E-19
   21.97404       -3.3029521E-19
   22.10088       -3.3027471E-19
   22.22772       -3.3025026E-19
   22.35457       -3.3022348E-19
   22.48141       -3.3019672E-19
   22.60826       -3.3017230E-19
   22.73510       -3.3015141E-19
   22.86194       -3.3013582E-19
   22.98879       -3.3012600E-19
   23.11563       -3.3012073E-19
   23.24247       -3.3011956E-19
   23.36932       -3.3012124E-19
   23.49616       -3.3012336E-19
   23.62300       -3.3012489E-19
   23.74985       -3.3012359E-19
   23.87669       -3.3011837E-19
   24.00353       -3.3010793E-19
   24.13038       -3.3009214E-19
   24.25722       -3.3007089E-19
   24.38407       -3.3004550E-19
   24.51091       -3.3001552E-19
   24.63775       -3.2998334E-19
   24.76460       -3.2994981E-19
   24.89144       -3.2991667E-19
   25.01828       -3.2988550E-19
   25.14513       -3.2985755E-19
   25.27197       -3.2983431E-19
   25.39882       -3.2981648E-19
   25.52566       -3.2980446E-19
   25.65250       -3.2979880E-19
   25.77935       -3.2979908E-19
   25.90619       -3.2980443E-19
   26.03303       -3.2981394E-19
   26.15988       -3.2982682E-19
   26.28672       -3.2984075E-19
   26.41356       -3.2985463E-19
   26.54041       -3.2986621E-19
   26.66725       -3.2987379E-19
   26.79410       -3.2987575E-19
   26.92094       -3.2987120E-19
   27.04778       -3.2985859E-19
   27.17463       -3.2983775E-19
   27.30147       -3.2980818E-19
   27.42831       -3.2977052E-19
   27.55516       -3.2972513E-19
   27.68200       -3.2967353E-19
   27.80884       -3.2961744E-19
   27.93569       -3.2955894E-19
   28.06253       -3.2950050E-19
   28.18937       -3.2944453E-19
   28.31622       -3.2939317E-19
   28.44306       -3.2934860E-19
   28.56991       -3.2931280E-19
   28.69675       -3.2928677E-19
   28.82359       -3.2927111E-19
   28.95044       -3.2926542E-19
   29.07728       -3.2926839E-19
   29.20412       -3.2927791E-19
   29.33097       -3.2929057E-19
   29.45781       -3.2930378E-19
   29.58466       -3.2931391E-19
   29.71150       -3.2931733E-19
   29.83834       -3.2931110E-19
   29.96519       -3.2929352E-19
   30.09203       -3.2926361E-19
   30.21887       -3.2922148E-19
   30.34572       -3.2916846E-19
   30.47256       -3.2910753E-19
   30.59941       -3.2904234E-19
   30.72625       -3.2897759E-19
   30.85309       -3.2891630E-19
   30.97993       -3.2886344E-19
   31.10678       -3.2882234E-19
   31.23362       -3.2879584E-19
   31.36047       -3.2878584E-19
   31.48731       -3.2879225E-19
   31.61415       -3.2881425E-19
   31.74100       -3.2885072E-19
   31.86784       -3.2889846E-19
   31.99468       -3.2895412E-19
   32.12153       -3.2901435E-19
   32.24837       -3.2907491E-19
   32.37521       -3.2913193E-19
   32.50206       -3.2918056E-19
   32.62890       -3.2921703E-19
   32.75574       -3.2923799E-19
   32.88259       -3.2923980E-19
   33.00943       -3.2921915E-19
   33.13628       -3.2917435E-19
   33.26312       -3.2910453E-19
   33.38997       -3.2900974E-19
   33.51681       -3.2889210E-19
   33.64365       -3.2875637E-19
   33.77050       -3.2860885E-19
   33.89734       -3.2845791E-19
   34.02418       -3.2831230E-19
   34.15103       -3.2818220E-19
   34.27787       -3.2807666E-19
   34.40471       -3.2800198E-19
   34.53156       -3.2796282E-19
   34.65840       -3.2796088E-19
   34.78524       -3.2799257E-19
   34.91209       -3.2805236E-19
   35.03893       -3.2813195E-19
   35.16578       -3.2822162E-19
   35.29262       -3.2831396E-19
   35.41946       -3.2840368E-19
   35.54631       -3.2849082E-19
   35.67315       -3.2858261E-19
   35.80000       -3.2869079E-19
   35.92684       -3.2883177E-19
   36.05368       -3.2902461E-19
   36.18052       -3.2928408E-19
   36.30737       -3.2961586E-19
   36.43421       -3.3001159E-19
   36.56105       -3.3044260E-19
   36.68790       -3.3085749E-19
   36.81474       -3.3118032E-19
   36.94159       -3.3131706E-19
   37.06843       -3.3115961E-19
   37.19527       -3.3060142E-19
   37.32212       -3.2955276E-19
   37.44896       -3.2796070E-19
   37.57581       -3.2582551E-19
   37.70265       -3.2322175E-19
   37.82949       -3.2030698E-19
   37.95634       -3.1732522E-19
   38.08318       -3.1460119E-19
   38.21002       -3.1251892E-19
   38.33687       -3.1148866E-19
   38.46371       -3.1190538E-19
   38.59055       -3.1409638E-19
   38.71740       -3.1826516E-19
   38.84424       -3.2444081E-19
   38.97108       -3.3243585E-19
   39.09793       -3.4182008E-19
   39.22477       -3.5191942E-19
   39.35162       -3.6183990E-19
   39.47846       -3.7052067E-19
   39.60530       -3.7681872E-19
   39.73215       -3.7961459E-19
   39.85899       -3.7793314E-19
   39.98583       -3.7106927E-19
   40.11268       -3.5870566E-19
   40.23952       -3.4100942E-19
   40.36636       -3.1868997E-19
   40.49321       -2.9301436E-19
   40.62005       -2.6576794E-19
   40.74689       -2.3915774E-19
   40.87374       -2.1566659E-19
   41.00058       -1.9785908E-19
   41.12743       -1.8816331E-19
   41.25427       -1.8863650E-19
   41.38111       -2.0074344E-19
   41.50796       -2.2516182E-19
   41.63480       -2.6164307E-19
   41.76165       -3.0893211E-19
   41.88849       -3.6477109E-19
   42.01533       -4.2597734E-19
   42.14218       -4.8860452E-19
   42.26902       -5.4816634E-19
   42.39586       -5.9991724E-19
   42.52271       -6.3916329E-19
   42.64955       -6.6158536E-19
   42.77639       -6.6355074E-19
   42.90324       -6.4239612E-19
   43.03008       -5.9666347E-19
   43.15693       -5.2627826E-19
   43.28377       -4.3266227E-19
   43.41061       -3.1878057E-19
   43.53746       -1.8911956E-19
   43.66430       -4.9599931E-20
   43.79114        9.2571398E-20
   43.91799        2.2911417E-19
   44.04483        3.5094924E-19
   44.17167        4.4854360E-19
   44.29852        5.1232367E-19
   44.42536        5.3316304E-19
   44.55220        5.0294965E-19
   44.67905        4.1521318E-19
   44.80589        2.6580800E-19
   44.93274        5.3611944E-20
   45.05958       -2.1879938E-19
   45.18642       -5.4456515E-19
   45.31327       -9.1210466E-19
   45.44011       -1.3049171E-18
   45.56696       -1.7016983E-18
   45.69380       -2.0768367E-18
   45.82064       -2.4013535E-18
   45.94748       -2.6443027E-18
   46.07433       -2.7746293E-18
   46.20117       -2.7634245E-18
   46.32801       -2.5864761E-18
   46.45486       -2.2269631E-18
   46.58170       -1.6780916E-18
   46.70855       -9.4544707E-19
   46.83539       -4.8809207E-20
   46.96223        9.7682338E-19
   47.08908        2.0812226E-18
   47.21592        3.2001099E-18
   47.34277        4.2576417E-18
   47.46961        5.1702047E-18
   47.59645        5.8514285E-18
   47.72330        6.2181991E-18
   47.85014        6.1973463E-18
   47.97698        5.7325614E-18
   48.10383        4.7910309E-18
   48.23067        3.3692218E-18
   48.35751        1.4972328E-18
   48.48436       -7.5880917E-19
   48.61120       -3.2967575E-18
   48.73804       -5.9811581E-18
   48.86489       -8.6487896E-18
   48.99173       -1.1116934E-17
   49.11858       -1.3194071E-17
   49.24542       -1.4692438E-17
   49.37226       -1.5441733E-17
   49.49911       -1.5303028E-17
   49.62595       -1.4181907E-17
   49.75279       -1.2039771E-17
   49.87964       -8.9023279E-18
   50.00648       -4.8643907E-18
   50.13332       -9.0336789E-20
   50.26017        5.1901907E-18
   50.38701        1.0691393E-17
   50.51385        1.6085012E-17
   50.64070        2.1018019E-17
   50.76754        2.5133403E-17
   50.89439        2.8092910E-17
   51.02123        2.9600417E-17
   51.14808        2.9424452E-17
   51.27492        2.7418455E-17
   51.40176        2.3537297E-17
   51.52861        1.7848880E-17
   51.65545        1.0539709E-17
   51.78229        1.9137161E-18
   51.90914       -7.6161348E-18
   52.03598       -1.7543553E-17
   52.16282       -2.7291671E-17
   52.28967       -3.6242148E-17
   52.41651       -4.3769604E-17
   52.54335       -4.9279980E-17
   52.67020       -5.2250928E-17
   52.79704       -5.2272190E-17
   52.92389       -4.9083462E-17
   53.05073       -4.2607127E-17
   53.17757       -3.2973057E-17
   53.30442       -2.0532853E-17
   53.43126       -5.8609754E-18
   53.55810        1.0259121E-17
   53.68495        2.6865215E-17
   53.81179        4.2863110E-17
   53.93863        5.7089147E-17
   54.06548        6.8386145E-17
   54.19232        7.5689005E-17
   54.31916        7.8114940E-17
   54.44601        7.5051738E-17
   54.57285        6.6237063E-17
   54.69970        5.1820864E-17
   54.82654        3.2403520E-17
   54.95338        9.0430478E-18
   55.08023       -1.6773425E-17
   55.20707       -4.3196659E-17
   55.33392       -6.8120276E-17
   55.46076       -8.9320140E-17
   55.58760       -1.0462086E-16
   55.71444       -1.1207912E-16
   55.84129       -1.1017048E-16
   55.96813       -9.7964595E-17
   56.09497       -7.5272873E-17
   56.22182       -4.2753141E-17
   56.34866       -1.9577003E-18
   56.47551        4.4685286E-17
   56.60235        9.3962999E-17
   56.72919        1.4204187E-16
   56.85604        1.8469856E-16
   56.98288        2.1760658E-16
   57.10973        2.3666116E-16
   57.23657        2.3832106E-16
   57.36341        2.1994267E-16
   57.49026        1.8008040E-16
   57.61710        1.1872841E-16
   57.74394        3.7480943E-17
   57.87079       -6.0406658E-17
   57.99763       -1.7006851E-16
   58.12447       -2.8519507E-16
   58.25132       -3.9831383E-16
   58.37816       -5.0117325E-16
   58.50500       -5.8521268E-16
   58.63185       -6.4209354E-16
   58.75869       -6.6426388E-16
   58.88554       -6.4552381E-16
   59.01238       -5.8155795E-16
   59.13923       -4.7040118E-16
   59.26607       -3.1280681E-16
   59.39291       -1.1248811E-16
   59.51975        1.2378979E-16
   59.64660        3.8628559E-16
   59.77344        6.6253477E-16
   59.90028        9.3778289E-16
   60.02713        1.1955929E-15
   60.15397        1.4186107E-15
   60.28082        1.5894637E-15
   60.40766        1.6917596E-15
   60.53450        1.7111376E-15
   60.66135        1.6363225E-15
   60.78819        1.4601222E-15
   60.91504        1.1803020E-15
   61.04188        8.0027456E-16
   61.16872        3.2953703E-16
   61.29557       -2.1619470E-16
   61.42241       -8.1520494E-16
   61.54925       -1.4403747E-15
   61.67610       -2.0601650E-15
   61.80294       -2.6399705E-15
   61.92978       -3.1438007E-15
   62.05663       -3.5362183E-15
   62.18347       -3.7844424E-15
   62.31031       -3.8605000E-15
   62.43716       -3.7432957E-15
   62.56400       -3.4204624E-15
   62.69085       -2.8898545E-15
   62.81769       -2.1605606E-15
   62.94453       -1.2533322E-15
   63.07138       -2.0035386E-16
   63.19822        9.5568271E-16
   63.32506        2.1631883E-15
   63.45191        3.3639244E-15
   63.57875        4.4957892E-15
   63.70559        5.4960067E-15
   63.83244        6.3045522E-15
   63.95928        6.8676152E-15
   64.08613        7.1409019E-15
   64.21297        7.0925724E-15
   64.33981        6.7056168E-15
   64.46666        5.9795122E-15
   64.59350        4.9310358E-15
   64.72034        3.5941429E-15
   64.84719        2.0188903E-15
   64.97403        2.6942879E-16
   65.10088       -1.5788597E-15
   65.22771       -3.4429407E-15
   65.35456       -5.2362463E-15
   65.48141       -6.8731129E-15
   65.60825       -8.2733088E-15
   65.73509       -9.3663760E-15
   65.86194       -1.0095549E-14
   65.98878       -1.0420994E-14
   66.11562       -1.0322165E-14
   66.24247       -9.7991175E-15
   66.36931       -8.8726405E-15
   66.49615       -7.5831963E-15
   66.62300       -5.9886614E-15
   66.74984       -4.1610015E-15
   66.87669       -2.1820373E-15
   67.00353       -1.3856073E-16
   67.13037        1.8828947E-15
   67.25722        3.8012785E-15
   67.38406        5.5458805E-15
   67.51090        7.0604580E-15
   67.63775        8.3062939E-15
   67.76459        9.2639231E-15
   67.89143        9.9333265E-15
   68.01828        1.0332525E-14
   68.14512        1.0494601E-14
   68.27197        1.0463315E-14
   68.39881        1.0287628E-14
   68.52565        1.0015513E-14
   68.65250        9.6875836E-15
   68.77934        9.3310733E-15
   68.90618        8.9547696E-15
   69.03303        8.5454325E-15
   69.15987        8.0661957E-15
   69.28671        7.4572967E-15
   69.41356        6.6393471E-15
   69.54041        5.5191502E-15
   69.66724        3.9978685E-15
   69.79409        1.9811374E-15
   69.92093       -6.0949585E-16
   70.04778       -3.8245841E-15
   70.17462       -7.6751570E-15
   70.30146       -1.2122450E-14
   70.42831       -1.7069984E-14
   70.55515       -2.2358910E-14
   70.68199       -2.7767431E-14
   70.80884       -3.3014837E-14
   70.93568       -3.7770531E-14
   71.06252       -4.1667977E-14
   71.18937       -4.4323249E-14
   71.31622       -4.5357496E-14
   71.44305       -4.4422267E-14
   71.56990       -4.1226337E-14
   71.69675       -3.5562516E-14
   71.82359       -2.7332649E-14
   71.95043       -1.6569038E-14
   72.07728       -3.4505321E-15
   72.20412        1.1688310E-14
   72.33096        2.8356269E-14
   72.45780        4.5913692E-14
   72.58465        6.3590348E-14
   72.71149        8.0512813E-14
   72.83833        9.5740771E-14
   72.96518        1.0831094E-13
   73.09203        1.1728686E-13
   73.21886        1.2181226E-13
   73.34571        1.2116523E-13
   73.47256        1.1481027E-13
   73.59940        1.0244521E-13
   73.72624        8.4039722E-14
   73.85309        5.9862902E-14
   73.97993        3.0497225E-14
   74.10677       -3.1627300E-15
   74.23362       -3.9928117E-14
   74.36046       -7.8350446E-14
   74.48730       -1.1677241E-13
   74.61415       -1.5339347E-13
   74.74099       -1.8634782E-13
   74.86784       -2.1379155E-13
   74.99467       -2.3399503E-13
   75.12152       -2.4543635E-13
   75.24837       -2.4689070E-13
   75.37521       -2.3751129E-13
   75.50205       -2.1689693E-13
   75.62890       -1.8514186E-13
   75.75574       -1.4286455E-13
   75.88258       -9.1212628E-14
   76.00943       -3.1842117E-14
   76.13627        3.3129336E-14
   76.26311        1.0119435E-13
   76.38996        1.6955071E-13
   76.51680        2.3521587E-13
   76.64365        2.9515618E-13
   76.77049        3.4642531E-13
   76.89733        3.8630560E-13
   77.02418        4.1244503E-13
   77.15102        4.2298324E-13
   77.27786        4.1665930E-13
   77.40471        3.9289565E-13
   77.53155        3.5185247E-13
   77.65839        2.9444890E-13
   77.78524        2.2234874E-13
   77.91208        1.3791003E-13
   78.03893        4.4099964E-14
   78.16577       -5.5621696E-14
   78.29261       -1.5744554E-13
   78.41946       -2.5737545E-13
   78.54630       -3.5140331E-13
   78.67314       -4.3568721E-13
   78.79999       -5.0672368E-13
   78.92683       -5.6150538E-13
   79.05367       -5.9765571E-13
   79.18052       -6.1353358E-13
   79.30737       -6.0830187E-13
   79.43420       -5.8195723E-13
   79.56105       -5.3531881E-13
   79.68790       -4.6997719E-13
   79.81474       -3.8820618E-13
   79.94158       -2.9284371E-13
   80.06842       -1.8714765E-13
   80.19527       -7.4635969E-14
   80.32211        4.1079458E-14
   80.44895        1.5645594E-13
   80.57580        2.6817003E-13
   80.70264        3.7324595E-13
   80.82948        4.6915488E-13
   80.95633        5.5388002E-13
   81.08318        6.2594363E-13
   81.21001        6.8439628E-13
   81.33686        7.2876910E-13
   81.46371        7.5899497E-13
   81.59055        7.7530435E-13
   81.71739        7.7810561E-13
   81.84424        7.6785919E-13
   81.97108        7.4495797E-13
   82.09792        7.0962355E-13
   82.22476        6.6182980E-13
   82.35161        6.0126193E-13
   82.47845        5.2731821E-13
   82.60529        4.3915701E-13
   82.73214        3.3579053E-13
   82.85899        2.1622122E-13
   82.98582        7.9614084E-14
   83.11267       -7.4504828E-14
   83.23952       -2.4603754E-13
   83.36636       -4.3410577E-13
   83.49320       -6.3686149E-13
   83.62005       -8.5133322E-13
   83.74689       -1.0733232E-12
   83.87373       -1.2973694E-12
   84.00058       -1.5167836E-12
   84.12742       -1.7237679E-12
   84.25426       -1.9096174E-12
   84.38111       -2.0649996E-12
   84.50795       -2.1803048E-12
   84.63480       -2.2460549E-12
   84.76163       -2.2533496E-12
   84.88848       -2.1943328E-12
   85.01533       -2.0626541E-12
   85.14217       -1.8539016E-12
   85.26901       -1.5659828E-12
   85.39586       -1.1994336E-12
   85.52270       -7.5763430E-13
   85.64954       -2.4691992E-13
   85.77639        3.2342510E-13
   85.90323        9.4129164E-13
   86.03008        1.5919896E-12
   86.15692        2.2586026E-12
   86.28376        2.9224416E-12
   86.41061        3.5635819E-12
   86.53745        4.1614615E-12
   86.66429        4.6955178E-12
   86.79114        5.1458408E-12
   86.91798        5.4938124E-12
   87.04482        5.7227096E-12
   87.17167        5.8182534E-12
   87.29851        5.7690710E-12
   87.42535        5.5670698E-12
   87.55220        5.2077028E-12
   87.67904        4.6901177E-12
   87.80589        4.0171980E-12
   87.93273        3.1954940E-12
   88.05957        2.2350583E-12
   88.18642        1.1492017E-12
   88.31326       -4.5810218E-14
   88.44010       -1.3310942E-12
   88.56695       -2.6854977E-12
   88.69379       -4.0859304E-12
   88.82063       -5.5076620E-12
   88.94748       -6.9245590E-12
   89.07433       -8.3092673E-12
   89.20116       -9.6333211E-12
   89.32801       -1.0867193E-11
   89.45486       -1.1980314E-11
   89.58170       -1.2941073E-11
   89.70854       -1.3716846E-11
   89.83538       -1.4274112E-11
   89.96223       -1.4578672E-11
   90.08907       -1.4596057E-11
   90.21591       -1.4292153E-11
   90.34276       -1.3634072E-11
   90.46960       -1.2591328E-11
   90.59644       -1.1137279E-11
   90.72329       -9.2508475E-12
   90.85014       -6.9184910E-12
   90.97697       -4.1363159E-12
   91.10382       -9.1229183E-13
   91.23067        2.7315706E-12
   91.35751        6.7572098E-12
   91.48435        1.1108802E-11
   91.61120        1.5711515E-11
   91.73804        2.0470854E-11
   91.86488        2.5272758E-11
   91.99173        2.9984553E-11
   92.11857        3.4456847E-11
   92.24541        3.8526432E-11
   92.37225        4.2020179E-11
   92.49910        4.4759915E-11
   92.62595        4.6568163E-11
   92.75278        4.7274639E-11
   92.87963        4.6723264E-11
   93.00648        4.4779545E-11
   93.13332        4.1337954E-11
   93.26016        3.6329082E-11
   93.38701        2.9726239E-11
   93.51385        2.1551179E-11
   93.64069        1.1878622E-11
   93.76754        8.3933549E-13
   93.89438       -1.1378507E-11
   94.02122       -2.4529890E-11
   94.14807       -3.8315576E-11
   94.27491       -5.2386845E-11
   94.40176       -6.6352382E-11
   94.52859       -7.9787191E-11
   94.65544       -9.2243442E-11
   94.78229       -1.0326288E-10
   94.90913       -1.1239067E-10
   95.03597       -1.1919009E-10
   95.16282       -1.2325775E-10
   95.28966       -1.2423890E-10
   95.41650       -1.2184216E-10
   95.54335       -1.1585325E-10
   95.67019       -1.0614726E-10
   95.79704       -9.2698849E-11
   95.92388       -7.5589958E-11
   96.05072       -5.5014843E-11
   96.17757       -3.1281804E-11
   96.30441       -4.8117023E-12
   96.43125        2.3867011E-11
   96.55810        5.4126710E-11
   96.68494        8.5252333E-11
   96.81178        1.1645629E-10
   96.93863        1.4689619E-10
   97.06547        1.7569500E-10
   97.19231        2.0196314E-10
   97.31916        2.2482212E-10
   97.44600        2.4342889E-10
   97.57285        2.5700050E-10
   97.69969        2.6483848E-10
   97.82653        2.6635194E-10
   97.95338        2.6107952E-10
   98.08022        2.4870858E-10
   98.20706        2.2909216E-10
   98.33391        2.0226239E-10
   98.46075        1.6844028E-10
   98.58759        1.2804154E-10
   98.71444        8.1677810E-11
   98.84129        3.0153342E-11
   98.96812       -2.5543281E-11
   99.09497       -8.4252313E-11
   99.22182       -1.4466107E-10
   99.34866       -2.0532713E-10
   99.47550       -2.6470609E-10
   99.60234       -3.2118408E-10
   99.72919       -3.7311410E-10
   99.85603       -4.1885576E-10
   99.98287       -4.5681825E-10
   100.1097       -4.8550486E-10
   100.2366       -5.0355858E-10
   100.3634       -5.0980814E-10
   100.4902       -5.0331184E-10
   100.6171       -4.8340004E-10
   100.7439       -4.4971277E-10
   100.8708       -4.0223244E-10
   100.9976       -3.4131012E-10
   101.1245       -2.6768351E-10
   101.2513       -1.8248603E-10
   101.3782       -8.7245468E-11
   101.5050        1.6128231E-11
   101.6318        1.2536697E-10
   101.7587        2.3788041E-10
   101.8855        3.5080386E-10
   102.0124        4.6105778E-10
   102.1392        5.6541782E-10
   102.2661        6.6059486E-10
   102.3929        7.4332290E-10
   102.5197        8.1045298E-10
   102.6466        8.5905139E-10
   102.7734        8.8649893E-10
   102.9003        8.9058866E-10
   103.0271        8.6961993E-10
   103.1540        8.2248397E-10
   103.2808        7.4873979E-10
   103.4077        6.4867628E-10
   103.5345        5.2335825E-10
   103.6613        3.7465361E-10
   103.7882        2.0523969E-10
   103.9150        1.8587236E-11
   104.0419       -1.8107946E-10
   104.1687       -3.8884637E-10
   104.2956       -5.9919775E-10
   104.4224       -8.0612705E-10
   104.5492       -1.0032699E-09
   104.6761       -1.1840563E-09
   104.8029       -1.3418785E-09
   104.9298       -1.4702737E-09
   105.0566       -1.5631132E-09
   105.1835       -1.6147979E-09
   105.3103       -1.6204510E-09
   105.4371       -1.5761064E-09
   105.5640       -1.4788842E-09
   105.6908       -1.3271506E-09
   105.8177       -1.1206545E-09
   105.9445       -8.6063734E-10
   106.0714       -5.4991245E-10
   106.1982       -1.9290693E-10
   106.3251        2.0433377E-10
   106.4519        6.3418343E-10
   106.5787        1.0875149E-09
   106.7056        1.5538232E-09
   106.8324        2.0213913E-09
   106.9593        2.4774971E-09
   107.0861        2.9086578E-09
   107.2130        3.3009093E-09
   107.3398        3.6401151E-09
   107.4667        3.9122967E-09
   107.5935        4.1039838E-09
   107.7203        4.2025707E-09
   107.8472        4.1966786E-09
   107.9740        4.0765040E-09