  -7.200000       -1.4061245E-19
  -7.073156       -1.4062095E-19
  -6.946313       -1.4063713E-19
  -6.819469       -1.4066021E-19
  -6.692626       -1.4069014E-19
  -6.565782       -1.4072505E-19
  -6.438938       -1.4076408E-19
  -6.312095       -1.4080589E-19
  -6.185251       -1.4084870E-19
  -6.058407       -1.4089128E-19
  -5.931563       -1.4093224E-19
  -5.804720       -1.4096994E-19
  -5.677876       -1.4100253E-19
  -5.551033       -1.4103033E-19
  -5.424189       -1.4105143E-19
  -5.297346       -1.4106604E-19
  -5.170502       -1.4107455E-19
  -5.043658       -1.4107709E-19
  -4.916814       -1.4107502E-19
  -4.789971       -1.4106938E-19
  -4.663127       -1.4106285E-19
  -4.536283       -1.4105691E-19
  -4.409440       -1.4105397E-19
  -4.282596       -1.4105623E-19
  -4.155753       -1.4106535E-19
  -4.028909       -1.4108297E-19
  -3.902065       -1.4110998E-19
  -3.775222       -1.4114753E-19
  -3.648378       -1.4119373E-19
  -3.521534       -1.4124948E-19
  -3.394691       -1.4131227E-19
  -3.267847       -1.4138002E-19
  -3.141004       -1.4145152E-19
  -3.014160       -1.4152298E-19
  -2.887316       -1.4159272E-19
  -2.760473       -1.4165785E-19
  -2.633629       -1.4171694E-19
  -2.506785       -1.4176644E-19
  -2.379942       -1.4180573E-19
  -2.253098       -1.4183281E-19
  -2.126254       -1.4184653E-19
  -1.999411       -1.4184816E-19
  -1.872567       -1.4183653E-19
  -1.745723       -1.4181312E-19
  -1.618880       -1.4177898E-19
  -1.492036       -1.4173639E-19
  -1.365193       -1.4168791E-19
  -1.238349       -1.4163630E-19
  -1.111505       -1.4158406E-19
 -0.9846617       -1.4153507E-19
 -0.8578180       -1.4149170E-19
 -0.7309744       -1.4145631E-19
 -0.6041307       -1.4143090E-19
 -0.4772871       -1.4141745E-19
 -0.3504435       -1.4141603E-19
 -0.2235998       -1.4142656E-19
 -9.6756198E-02   -1.4144843E-19
  3.0087441E-02   -1.4148005E-19
  0.1569311       -1.4151944E-19
  0.2837747       -1.4156391E-19
  0.4106184       -1.4161116E-19
  0.5374620       -1.4165746E-19
  0.6643056       -1.4170145E-19
  0.7911493       -1.4173965E-19
  0.9179929       -1.4177032E-19
   1.044837       -1.4179142E-19
   1.171680       -1.4180250E-19
   1.298524       -1.4180285E-19
   1.425367       -1.4179269E-19
   1.552211       -1.4177276E-19
   1.679055       -1.4174402E-19
   1.805898       -1.4170801E-19
   1.932742       -1.4166706E-19
   2.059586       -1.4162345E-19
   2.186429       -1.4157941E-19
   2.313273       -1.4153678E-19
   2.440117       -1.4149801E-19
   2.566960       -1.4146529E-19
   2.693804       -1.4143985E-19
   2.820647       -1.4142276E-19
   2.947491       -1.4141454E-19
   3.074335       -1.4141579E-19
   3.201178       -1.4142531E-19
   3.328022       -1.4144197E-19
   3.454866       -1.4146457E-19
   3.581709       -1.4149122E-19
   3.708553       -1.4151949E-19
   3.835397       -1.4154722E-19
   3.962240       -1.4157305E-19
   4.089084       -1.4159411E-19
   4.215928       -1.4160921E-19
   4.342771       -1.4161726E-19
   4.469615       -1.4161742E-19
   4.596458       -1.4160977E-19
   4.723302       -1.4159548E-19
   4.850146       -1.4157624E-19
   4.976989       -1.4155357E-19
   5.103833       -1.4152992E-19
   5.230677       -1.4150767E-19
   5.357520       -1.4148999E-19
   5.484364       -1.4147880E-19
   5.611207       -1.4147739E-19
   5.738051       -1.4148718E-19
   5.864895       -1.4150996E-19
   5.991738       -1.4154547E-19
   6.118582       -1.4159388E-19
   6.245426       -1.4165313E-19
   6.372270       -1.4172160E-19
   6.499113       -1.4179715E-19
   6.625957       -1.4187662E-19
   6.752800       -1.4195632E-19
   6.879644       -1.4203286E-19
   7.006487       -1.4210359E-19
   7.133331       -1.4216486E-19
   7.260175       -1.4221547E-19
   7.387019       -1.4225335E-19
   7.513862       -1.4227781E-19
   7.640706       -1.4228950E-19
   7.767550       -1.4228891E-19
   7.894393       -1.4227819E-19
   8.021236       -1.4225839E-19
   8.148081       -1.4223197E-19
   8.274924       -1.4220129E-19
   8.401768       -1.4216809E-19
   8.528611       -1.4213503E-19
   8.655455       -1.4210353E-19
   8.782298       -1.4207556E-19
   8.909142       -1.4205160E-19
   9.035986       -1.4203343E-19
   9.162829       -1.4202137E-19
   9.289673       -1.4201581E-19
   9.416516       -1.4201671E-19
   9.543361       -1.4202425E-19
   9.670204       -1.4203826E-19
   9.797048       -1.4205880E-19
   9.923891       -1.4208489E-19
   10.05073       -1.4211625E-19
   10.17758       -1.4215158E-19
   10.30442       -1.4218930E-19
   10.43127       -1.4222802E-19
   10.55811       -1.4226652E-19
   10.68495       -1.4230190E-19
   10.81180       -1.4233144E-19
   10.93864       -1.4235382E-19
   11.06548       -1.4236661E-19
   11.19233       -1.4236925E-19
   11.31917       -1.4235952E-19
   11.44602       -1.4233745E-19
   11.57286       -1.4230310E-19
   11.69970       -1.4225719E-19
   11.82655       -1.4220146E-19
   11.95339       -1.4213793E-19
   12.08023       -1.4207002E-19
   12.20708       -1.4199952E-19
   12.33392       -1.4192985E-19
   12.46076       -1.4186400E-19
   12.58761       -1.4180400E-19
   12.71445       -1.4175283E-19
   12.84130       -1.4171135E-19
   12.96814       -1.4168065E-19
   13.09498       -1.4166101E-19
   13.22183       -1.4165146E-19
   13.34867       -1.4165111E-19
   13.47551       -1.4165845E-19
   13.60236       -1.4167174E-19
   13.72920       -1.4168845E-19
   13.85604       -1.4170668E-19
   13.98289       -1.4172357E-19
   14.10973       -1.4173750E-19
   14.23658       -1.4174655E-19
   14.36342       -1.4174956E-19
   14.49026       -1.4174504E-19
   14.61711       -1.4173200E-19
   14.74395       -1.4171159E-19
   14.87079       -1.4168323E-19
   14.99764       -1.4164789E-19
   15.12448       -1.4160611E-19
   15.25132       -1.4155837E-19
   15.37817       -1.4150650E-19
   15.50501       -1.4145145E-19
   15.63186       -1.4139551E-19
   15.75870       -1.4133908E-19
   15.88554       -1.4128427E-19
   16.01239       -1.4123282E-19
   16.13923       -1.4118571E-19
   16.26607       -1.4114418E-19
   16.39292       -1.4110980E-19
   16.51976       -1.4108283E-19
   16.64660       -1.4106340E-19
   16.77345       -1.4105143E-19
   16.90029       -1.4104555E-19
   17.02714       -1.4104494E-19
   17.15398       -1.4104761E-19
   17.28082       -1.4105138E-19
   17.40767       -1.4105333E-19
   17.53451       -1.4105067E-19
   17.66135       -1.4104116E-19
   17.78820       -1.4102211E-19
   17.91504       -1.4099206E-19
   18.04188       -1.4095043E-19
   18.16873       -1.4089672E-19
   18.29557       -1.4083160E-19
   18.42241       -1.4075734E-19
   18.54926       -1.4067649E-19
   18.67610       -1.4059215E-19
   18.80295       -1.4050764E-19
   18.92979       -1.4042685E-19
   19.05663       -1.4035399E-19
   19.18348       -1.4029160E-19
   19.31032       -1.4024277E-19
   19.43716       -1.4020801E-19
   19.56401       -1.4018936E-19
   19.69085       -1.4018537E-19
   19.81770       -1.4019555E-19
   19.94454       -1.4021757E-19
   20.07138       -1.4024885E-19
   20.19823       -1.4028612E-19
   20.32507       -1.4032596E-19
   20.45191       -1.4036509E-19
   20.57876       -1.4040022E-19
   20.70560       -1.4042941E-19
   20.83245       -1.4044979E-19
   20.95929       -1.4045988E-19
   21.08613       -1.4045920E-19
   21.21297       -1.4044742E-19
   21.33982       -1.4042537E-19
   21.46666       -1.4039386E-19
   21.59351       -1.4035363E-19
   21.72035       -1.4030685E-19
   21.84719       -1.4025561E-19
   21.97404       -1.4020099E-19
   22.10088       -1.4014580E-19
   22.22772       -1.4009195E-19
   22.35457       -1.4004031E-19
   22.48141       -1.3999324E-19
   22.60826       -1.3995283E-19
   22.73510       -1.3991905E-19
   22.86194       -1.3989378E-19
   22.98879       -1.3987784E-19
   23.11563       -1.3987065E-19
   23.24247       -1.3987298E-19
   23.36932       -1.3988429E-19
   23.49616       -1.3990382E-19
   23.62300       -1.3992961E-19
   23.74985       -1.3995980E-19
   23.87669       -1.3999219E-19
   24.00353       -1.4002358E-19
   24.13038       -1.4005141E-19
   24.25722       -1.4007279E-19
   24.38407       -1.4008548E-19
   24.51091       -1.4008704E-19
   24.63775       -1.4007594E-19
   24.76460       -1.4005154E-19
   24.89144       -1.4001385E-19
   25.01828       -1.3996400E-19
   25.14513       -1.3990460E-19
   25.27197       -1.3983783E-19
   25.39882       -1.3976680E-19
   25.52566       -1.3969583E-19
   25.65250       -1.3962731E-19
   25.77935       -1.3956589E-19
   25.90619       -1.3951386E-19
   26.03303       -1.3947337E-19
   26.15988       -1.3944549E-19
   26.28672       -1.3943057E-19
   26.41356       -1.3942821E-19
   26.54041       -1.3943667E-19
   26.66725       -1.3945453E-19
   26.79410       -1.3947855E-19
   26.92094       -1.3950638E-19
   27.04778       -1.3953515E-19
   27.17463       -1.3956215E-19
   27.30147       -1.3958510E-19
   27.42831       -1.3960198E-19
   27.55516       -1.3961160E-19
   27.68200       -1.3961285E-19
   27.80884       -1.3960537E-19
   27.93569       -1.3958956E-19
   28.06253       -1.3956531E-19
   28.18937       -1.3953319E-19
   28.31622       -1.3949385E-19
   28.44306       -1.3944874E-19
   28.56991       -1.3939984E-19
   28.69675       -1.3934851E-19
   28.82359       -1.3929636E-19
   28.95044       -1.3924574E-19
   29.07728       -1.3919788E-19
   29.20412       -1.3915477E-19
   29.33097       -1.3911801E-19
   29.45781       -1.3908921E-19
   29.58466       -1.3906971E-19
   29.71150       -1.3905957E-19
   29.83834       -1.3905926E-19
   29.96519       -1.3906911E-19
   30.09203       -1.3908716E-19
   30.21887       -1.3911262E-19
   30.34572       -1.3914342E-19
   30.47256       -1.3917727E-19
   30.59941       -1.3921147E-19
   30.72625       -1.3924428E-19
   30.85309       -1.3927187E-19
   30.97993       -1.3929287E-19
   31.10678       -1.3930547E-19
   31.23362       -1.3930750E-19
   31.36047       -1.3929897E-19
   31.48731       -1.3927888E-19
   31.61415       -1.3924875E-19
   31.74100       -1.3920920E-19
   31.86784       -1.3916251E-19
   31.99468       -1.3911101E-19
   32.12153       -1.3905658E-19
   32.24837       -1.3900218E-19
   32.37521       -1.3895090E-19
   32.50206       -1.3890476E-19
   32.62890       -1.3886558E-19
   32.75574       -1.3883527E-19
   32.88259       -1.3881419E-19
   33.00943       -1.3880246E-19
   33.13628       -1.3880018E-19
   33.26312       -1.3880600E-19
   33.38997       -1.3881832E-19
   33.51681       -1.3883513E-19
   33.64365       -1.3885523E-19
   33.77050       -1.3887571E-19
   33.89734       -1.3889487E-19
   34.02418       -1.3891003E-19
   34.15103       -1.3891981E-19
   34.27787       -1.3892297E-19
   34.40471       -1.3891846E-19
   34.53156       -1.3890561E-19
   34.65840       -1.3888506E-19
   34.78524       -1.3885665E-19
   34.91209       -1.3882091E-19
   35.03893       -1.3877927E-19
   35.16578       -1.3873325E-19
   35.29262       -1.3868456E-19
   35.41946       -1.3863470E-19
   35.54631       -1.3858563E-19
   35.67315       -1.3853913E-19
   35.80000       -1.3849759E-19
   35.92684       -1.3846202E-19
   36.05368       -1.3843343E-19
   36.18052       -1.3841332E-19
   36.30737       -1.3840212E-19
   36.43421       -1.3839897E-19
   36.56105       -1.3840395E-19
   36.68790       -1.3841622E-19
   36.81474       -1.3843338E-19
   36.94159       -1.3845438E-19
   37.06843       -1.3847643E-19
   37.19527       -1.3849753E-19
   37.32212       -1.3851567E-19
   37.44896       -1.3852848E-19
   37.57581       -1.3853499E-19
   37.70265       -1.3853373E-19
   37.82949       -1.3852352E-19
   37.95634       -1.3850390E-19
   38.08318       -1.3847515E-19
   38.21002       -1.3843814E-19
   38.33687       -1.3839374E-19
   38.46371       -1.3834371E-19
   38.59055       -1.3828990E-19
   38.71740       -1.3823420E-19
   38.84424       -1.3817931E-19
   38.97108       -1.3812644E-19
   39.09793       -1.3807840E-19
   39.22477       -1.3803682E-19
   39.35162       -1.3800288E-19
   39.47846       -1.3797853E-19
   39.60530       -1.3796441E-19
   39.73215       -1.3796021E-19
   39.85899       -1.3796553E-19
   39.98583       -1.3797966E-19
   40.11268       -1.3800067E-19
   40.23952       -1.3802698E-19
   40.36636       -1.3805569E-19
   40.49321       -1.3808492E-19
   40.62005       -1.3811152E-19
   40.74689       -1.3813364E-19
   40.87374       -1.3814957E-19
   41.00058       -1.3815735E-19
   41.12743       -1.3815697E-19
   41.25427       -1.3814793E-19
   41.38111       -1.3813071E-19
   41.50796       -1.3810673E-19
   41.63480       -1.3807796E-19
   41.76165       -1.3804551E-19
   41.88849       -1.3801241E-19
   42.01533       -1.3798005E-19
   42.14218       -1.3795007E-19
   42.26902       -1.3792452E-19
   42.39586       -1.3790455E-19
   42.52271       -1.3789129E-19
   42.64955       -1.3788522E-19
   42.77639       -1.3788709E-19
   42.90324       -1.3789587E-19
   43.03008       -1.3791164E-19
   43.15693       -1.3793391E-19
   43.28377       -1.3796124E-19
   43.41061       -1.3799227E-19
   43.53746       -1.3802563E-19
   43.66430       -1.3805916E-19
   43.79114       -1.3809129E-19
   43.91799       -1.3811932E-19
   44.04483       -1.3814212E-19
   44.17167       -1.3815775E-19
   44.29852       -1.3816446E-19
   44.42536       -1.3816174E-19
   44.55220       -1.3814884E-19
   44.67905       -1.3812585E-19
   44.80589       -1.3809307E-19
   44.93274       -1.3805301E-19
   45.05958       -1.3800701E-19
   45.18642       -1.3795718E-19
   45.31327       -1.3790566E-19
   45.44011       -1.3785541E-19
   45.56696       -1.3780812E-19
   45.69380       -1.3776610E-19
   45.82064       -1.3773088E-19
   45.94748       -1.3770281E-19
   46.07433       -1.3768277E-19
   46.20117       -1.3767112E-19
   46.32801       -1.3766683E-19
   46.45486       -1.3766909E-19
   46.58170       -1.3767660E-19
   46.70855       -1.3768792E-19
   46.83539       -1.3770144E-19
   46.96223       -1.3771568E-19
   47.08908       -1.3772898E-19
   47.21592       -1.3774020E-19
   47.34277       -1.3774752E-19
   47.46961       -1.3774951E-19
   47.59645       -1.3774505E-19
   47.72330       -1.3773355E-19
   47.85014       -1.3771441E-19
   47.97698       -1.3768695E-19
   48.10383       -1.3765088E-19
   48.23067       -1.3760748E-19
   48.35751       -1.3755653E-19
   48.48436       -1.3749986E-19
   48.61120       -1.3743906E-19
   48.73804       -1.3737626E-19
   48.86489       -1.3731324E-19
   48.99173       -1.3725306E-19
   49.11858       -1.3719824E-19
   49.24542       -1.3715062E-19
   49.37226       -1.3711249E-19
   49.49911       -1.3708505E-19
   49.62595       -1.3706973E-19
   49.75279       -1.3706537E-19
   49.87964       -1.3707179E-19
   50.00648       -1.3708816E-19
   50.13332       -1.3711152E-19
   50.26017       -1.3714012E-19
   50.38701       -1.3717135E-19
   50.51385       -1.3720263E-19
   50.64070       -1.3723112E-19
   50.76754       -1.3725496E-19
   50.89439       -1.3727228E-19
   51.02123       -1.3728196E-19
   51.14808       -1.3728337E-19
   51.27492       -1.3727635E-19
   51.40176       -1.3726167E-19
   51.52861       -1.3723998E-19
   51.65545       -1.3721309E-19
   51.78229       -1.3718311E-19
   51.90914       -1.3715013E-19
   52.03598       -1.3711753E-19
   52.16282       -1.3708710E-19
   52.28967       -1.3705955E-19
   52.41651       -1.3703661E-19
   52.54335       -1.3701922E-19
   52.67020       -1.3700727E-19
   52.79704       -1.3700144E-19
   52.92389       -1.3700105E-19
   53.05073       -1.3700565E-19
   53.17757       -1.3701425E-19
   53.30442       -1.3702616E-19
   53.43126       -1.3703977E-19
   53.55810       -1.3705408E-19
   53.68495       -1.3706840E-19
   53.81179       -1.3708085E-19
   53.93863       -1.3709081E-19
   54.06548       -1.3709754E-19
   54.19232       -1.3710046E-19
   54.31916       -1.3709883E-19
   54.44601       -1.3709317E-19
   54.57285       -1.3708221E-19
   54.69970       -1.3706705E-19
   54.82654       -1.3704814E-19
   54.95338       -1.3702573E-19
   55.08023       -1.3700066E-19
   55.20707       -1.3697412E-19
   55.33392       -1.3694608E-19
   55.46076       -1.3691917E-19
   55.58760       -1.3689367E-19
   55.71444       -1.3687068E-19
   55.84129       -1.3685207E-19
   55.96813       -1.3683843E-19
   56.09497       -1.3682964E-19
   56.22182       -1.3682680E-19
   56.34866       -1.3682975E-19
   56.47551       -1.3683704E-19
   56.60235       -1.3684804E-19
   56.72919       -1.3686112E-19
   56.85604       -1.3687518E-19
   56.98288       -1.3688839E-19
   57.10973       -1.3689860E-19
   57.23657       -1.3690503E-19
   57.36341       -1.3690616E-19
   57.49026       -1.3690173E-19
   57.61710       -1.3689212E-19
   57.74394       -1.3687796E-19
   57.87079       -1.3685882E-19
   57.99763       -1.3683644E-19
   58.12447       -1.3681183E-19
   58.25132       -1.3678605E-19
   58.37816       -1.3676020E-19
   58.50500       -1.3673469E-19
   58.63185       -1.3671005E-19
   58.75869       -1.3668583E-19
   58.88554       -1.3666336E-19
   59.01238       -1.3664237E-19
   59.13923       -1.3662262E-19
   59.26607       -1.3660380E-19
   59.39291       -1.3658700E-19
   59.51975       -1.3657225E-19
   59.64660       -1.3656108E-19
   59.77344       -1.3655346E-19
   59.90028       -1.3655079E-19
   60.02713       -1.3655286E-19
   60.15397       -1.3656029E-19
   60.28082       -1.3657244E-19
   60.40766       -1.3658856E-19
   60.53450       -1.3660658E-19
   60.66135       -1.3662531E-19
   60.78819       -1.3664208E-19
   60.91504       -1.3665550E-19
   61.04188       -1.3666310E-19
   61.16872       -1.3666328E-19
   61.29557       -1.3665389E-19
   61.42241       -1.3663501E-19
   61.54925       -1.3660606E-19
   61.67610       -1.3656761E-19
   61.80294       -1.3652146E-19
   61.92978       -1.3646870E-19
   62.05663       -1.3641289E-19
   62.18347       -1.3635584E-19
   62.31031       -1.3630079E-19
   62.43716       -1.3625058E-19
   62.56400       -1.3620704E-19
   62.69085       -1.3617266E-19
   62.81769       -1.3614922E-19
   62.94453       -1.3613701E-19
   63.07138       -1.3613586E-19
   63.19822       -1.3614532E-19
   63.32506       -1.3616451E-19
   63.45191       -1.3619042E-19
   63.57875       -1.3622174E-19
   63.70559       -1.3625490E-19
   63.83244       -1.3628731E-19
   63.95928       -1.3631620E-19
   64.08613       -1.3633840E-19
   64.21297       -1.3635201E-19
   64.33981       -1.3635562E-19
   64.46666       -1.3634742E-19
   64.59350       -1.3632799E-19
   64.72034       -1.3629809E-19
   64.84719       -1.3625871E-19
   64.97403       -1.3621258E-19
   65.10088       -1.3616193E-19
   65.22771       -1.3611026E-19
   65.35456       -1.3606068E-19
   65.48141       -1.3601650E-19
   65.60825       -1.3597957E-19
   65.73509       -1.3595283E-19
   65.86194       -1.3593731E-19
   65.98878       -1.3593383E-19
   66.11562       -1.3594221E-19
   66.24247       -1.3596160E-19
   66.36931       -1.3599038E-19
   66.49615       -1.3602648E-19
   66.62300       -1.3606722E-19
   66.74984       -1.3610925E-19
   66.87669       -1.3615031E-19
   67.00353       -1.3618722E-19
   67.13037       -1.3621663E-19
   67.25722       -1.3623628E-19
   67.38406       -1.3624466E-19
   67.51090       -1.3624073E-19
   67.63775       -1.3622297E-19
   67.76459       -1.3619185E-19
   67.89143       -1.3614859E-19
   68.01828       -1.3609484E-19
   68.14512       -1.3603328E-19
   68.27197       -1.3596834E-19
   68.39881       -1.3590234E-19
   68.52565       -1.3583808E-19
   68.65250       -1.3577995E-19
   68.77934       -1.3572964E-19
   68.90618       -1.3568996E-19
   69.03303       -1.3566102E-19
   69.15987       -1.3564365E-19
   69.28671       -1.3563611E-19
   69.41356       -1.3563716E-19
   69.54041       -1.3564569E-19
   69.66724       -1.3565823E-19
   69.79409       -1.3567220E-19
   69.92093       -1.3568612E-19
   70.04778       -1.3569712E-19
   70.17462       -1.3570425E-19
   70.30146       -1.3570610E-19
   70.42831       -1.3570167E-19
   70.55515       -1.3569079E-19
   70.68199       -1.3567297E-19
   70.80884       -1.3564939E-19
   70.93568       -1.3562082E-19
   71.06252       -1.3558677E-19
   71.18937       -1.3554785E-19
   71.31622       -1.3550572E-19
   71.44305       -1.3546070E-19
   71.56990       -1.3541443E-19
   71.69675       -1.3536709E-19
   71.82359       -1.3531969E-19
   71.95043       -1.3527324E-19
   72.07728       -1.3522937E-19
   72.20412       -1.3518876E-19
   72.33096       -1.3515211E-19
   72.45780       -1.3512042E-19
   72.58465       -1.3509324E-19
   72.71149       -1.3507108E-19
   72.83833       -1.3505368E-19
   72.96518       -1.3503983E-19
   73.09203       -1.3502942E-19
   73.21886       -1.3502174E-19
   73.34571       -1.3501516E-19
   73.47256       -1.3500834E-19
   73.59940       -1.3500142E-19
   73.72624       -1.3499343E-19
   73.85309       -1.3498336E-19
   73.97993       -1.3497094E-19
   74.10677       -1.3495618E-19
   74.23362       -1.3493870E-19
   74.36046       -1.3491881E-19
   74.48730       -1.3489694E-19
   74.61415       -1.3487272E-19
   74.74099       -1.3484747E-19
   74.86784       -1.3482174E-19
   74.99467       -1.3479517E-19
   75.12152       -1.3476914E-19
   75.24837       -1.3474330E-19
   75.37521       -1.3471823E-19
   75.50205       -1.3469405E-19
   75.62890       -1.3467131E-19
   75.75574       -1.3465092E-19
   75.88258       -1.3463198E-19
   76.00943       -1.3461509E-19
   76.13627       -1.3459991E-19
   76.26311       -1.3458709E-19
   76.38996       -1.3457577E-19
   76.51680       -1.3456669E-19
   76.64365       -1.3456034E-19
   76.77049       -1.3455637E-19
   76.89733       -1.3455476E-19
   77.02418       -1.3455511E-19
   77.15102       -1.3455737E-19
   77.27786       -1.3456141E-19
   77.40471       -1.3456654E-19
   77.53155       -1.3457218E-19
   77.65839       -1.3457693E-19
   77.78524       -1.3458112E-19
   77.91208       -1.3458304E-19
   78.03893       -1.3458173E-19
   78.16577       -1.3457717E-19
   78.29261       -1.3456828E-19
   78.41946       -1.3455459E-19
   78.54630       -1.3453618E-19
   78.67314       -1.3451337E-19
   78.79999       -1.3448698E-19
   78.92683       -1.3445823E-19
   79.05367       -1.3442835E-19
   79.18052       -1.3439833E-19
   79.30737       -1.3436991E-19
   79.43420       -1.3434443E-19
   79.56105       -1.3432309E-19
   79.68790       -1.3430619E-19
   79.81474       -1.3429476E-19
   79.94158       -1.3428842E-19
   80.06842       -1.3428689E-19
   80.19527       -1.3428906E-19
   80.32211       -1.3429394E-19
   80.44895       -1.3430004E-19
   80.57580       -1.3430550E-19
   80.70264       -1.3430894E-19
   80.82948       -1.3430884E-19
   80.95633       -1.3430527E-19
   81.08318       -1.3429675E-19
   81.21001       -1.3428290E-19
   81.33686       -1.3426377E-19
   81.46371       -1.3424041E-19
   81.59055       -1.3421300E-19
   81.71739       -1.3418351E-19
   81.84424       -1.3415262E-19
   81.97108       -1.3412127E-19
   82.09792       -1.3409117E-19
   82.22476       -1.3406240E-19
   82.35161       -1.3403618E-19
   82.47845       -1.3401281E-19
   82.60529       -1.3399258E-19
   82.73214       -1.3397564E-19
   82.85899       -1.3396271E-19
   82.98582       -1.3395328E-19
   83.11267       -1.3394706E-19
   83.23952       -1.3394443E-19
   83.36636       -1.3394488E-19
   83.49320       -1.3394847E-19
   83.62005       -1.3395409E-19
   83.74689       -1.3396167E-19
   83.87373       -1.3397086E-19
   84.00058       -1.3398033E-19
   84.12742       -1.3398957E-19
   84.25426       -1.3399791E-19
   84.38111       -1.3400416E-19
   84.50795       -1.3400738E-19
   84.63480       -1.3400632E-19
   84.76163       -1.3400034E-19
   84.88848       -1.3398894E-19
   85.01533       -1.3397261E-19
   85.14217       -1.3395128E-19
   85.26901       -1.3392491E-19
   85.39586       -1.3389547E-19
   85.52270       -1.3386397E-19
   85.64954       -1.3383161E-19
   85.77639       -1.3380052E-19
   85.90323       -1.3377264E-19
   86.03008       -1.3374966E-19
   86.15692       -1.3373321E-19
   86.28376       -1.3372462E-19
   86.41061       -1.3372374E-19
   86.53745       -1.3373108E-19
   86.66429       -1.3374527E-19
   86.79114       -1.3376626E-19
   86.91798       -1.3379184E-19
   87.04482       -1.3381999E-19
   87.17167       -1.3384810E-19
   87.29851       -1.3387506E-19
   87.42535       -1.3389816E-19
   87.55220       -1.3391647E-19
   87.67904       -1.3392840E-19
   87.80589       -1.3393384E-19
   87.93273       -1.3393229E-19
   88.05957       -1.3392485E-19
   88.18642       -1.3391208E-19
   88.31326       -1.3389531E-19
   88.44010       -1.3387631E-19
   88.56695       -1.3385588E-19
   88.69379       -1.3383557E-19
   88.82063       -1.3381674E-19
   88.94748       -1.3380042E-19
   89.07433       -1.3378712E-19
   89.20116       -1.3377757E-19
   89.32801       -1.3377138E-19
   89.45486       -1.3376890E-19
   89.58170       -1.3377061E-19
   89.70854       -1.3377445E-19
   89.83538       -1.3378133E-19
   89.96223       -1.3379005E-19
   90.08907       -1.3379935E-19
   90.21591       -1.3380812E-19
   90.34276       -1.3381611E-19
   90.46960       -1.3382189E-19
   90.59644       -1.3382443E-19
   90.72329       -1.3382345E-19
   90.85014       -1.3381761E-19
   90.97697       -1.3380662E-19
   91.10382       -1.3379030E-19
   91.23067       -1.3376855E-19
   91.35751       -1.3374068E-19
   91.48435       -1.3370730E-19
   91.61120       -1.3366900E-19
   91.73804       -1.3362716E-19
   91.86488       -1.3358313E-19
   91.99173       -1.3353806E-19
   92.11857       -1.3349307E-19
   92.24541       -1.3345002E-19
   92.37225       -1.3341077E-19
   92.49910       -1.3337623E-19
   92.62595       -1.3334780E-19
   92.75278       -1.3332637E-19
   92.87963       -1.3331287E-19
   93.00648       -1.3330807E-19
   93.13332       -1.3331126E-19
   93.26016       -1.3332226E-19
   93.38701       -1.3334020E-19
   93.51385       -1.3336408E-19
   93.64069       -1.3339350E-19
   93.76754       -1.3342726E-19
   93.89438       -1.3346337E-19
   94.02122       -1.3350024E-19
   94.14807       -1.3353639E-19
   94.27491       -1.3357031E-19
   94.40176       -1.3360015E-19
   94.52859       -1.3362460E-19
   94.65544       -1.3364114E-19
   94.78229       -1.3364942E-19
   94.90913       -1.3364863E-19
   95.03597       -1.3363820E-19
   95.16282       -1.3361734E-19
   95.28966       -1.3358752E-19
   95.41650       -1.3354879E-19
   95.54335       -1.3350232E-19
   95.67019       -1.3344946E-19
   95.79704       -1.3339245E-19
   95.92388       -1.3333424E-19
   96.05072       -1.3327632E-19
   96.17757       -1.3322156E-19
   96.30441       -1.3317189E-19
   96.43125       -1.3313011E-19
   96.55810       -1.3309738E-19
   96.68494       -1.3307564E-19
   96.81178       -1.3306578E-19
   96.93863       -1.3306829E-19
   97.06547       -1.3308240E-19
   97.19231       -1.3310746E-19
   97.31916       -1.3314223E-19
   97.44600       -1.3318420E-19
   97.57285       -1.3323137E-19
   97.69969       -1.3328103E-19
   97.82653       -1.3333017E-19
   97.95338       -1.3337580E-19
   98.08022       -1.3341591E-19
   98.20706       -1.3344826E-19
   98.33391       -1.3347121E-19
   98.46075       -1.3348352E-19
   98.58759       -1.3348433E-19
   98.71444       -1.3347291E-19
   98.84129       -1.3345039E-19
   98.96812       -1.3341631E-19
   99.09497       -1.3337212E-19
   99.22182       -1.3331906E-19
   99.34866       -1.3325833E-19
   99.47550       -1.3319209E-19
   99.60234       -1.3312220E-19
   99.72919       -1.3305103E-19
   99.85603       -1.3298147E-19
   99.98287       -1.3291625E-19
   100.1097       -1.3285849E-19
   100.2366       -1.3281076E-19
   100.3634       -1.3277562E-19
   100.4902       -1.3275581E-19
   100.6171       -1.3275401E-19
   100.7439       -1.3277092E-19
   100.8708       -1.3280794E-19
   100.9976       -1.3286430E-19
   101.1245       -1.3293843E-19
   101.2513       -1.3302719E-19
   101.3782       -1.3312658E-19
   101.5050       -1.3323111E-19
   101.6318       -1.3333327E-19
   101.7587       -1.3342554E-19
   101.8855       -1.3349987E-19
   102.0124       -1.3354757E-19
   102.1392       -1.3355953E-19
   102.2661       -1.3352864E-19
   102.3929       -1.3344857E-19
   102.5197       -1.3331567E-19
   102.6466       -1.3312824E-19
   102.7734       -1.3288835E-19
   102.9003       -1.3260099E-19
   103.0271       -1.3227516E-19
   103.1540       -1.3192318E-19
   103.2808       -1.3156106E-19
   103.4077       -1.3120847E-19
   103.5345       -1.3088637E-19
   103.6613       -1.3061842E-19
   103.7882       -1.3042784E-19
   103.9150       -1.3033819E-19
   104.0419       -1.3037051E-19
   104.1687       -1.3054285E-19
   104.2956       -1.3086867E-19
   104.4224       -1.3135527E-19
   104.5492       -1.3200237E-19
   104.6761       -1.3280151E-19
   104.8029       -1.3373480E-19
   104.9298       -1.3477583E-19
   105.0566       -1.3588697E-19
   105.1835       -1.3702355E-19
   105.3103       -1.3813192E-19
   105.4371       -1.3915135E-19
   105.5640       -1.4001791E-19
   105.6908       -1.4066536E-19
   105.8177       -1.4102822E-19
   105.9445       -1.4104600E-19
   106.0714       -1.4066700E-19
   106.1982       -1.3985095E-19
   106.3251       -1.3857277E-19
   106.4519       -1.3682719E-19
   106.5787       -1.3463042E-19
   106.7056       -1.3202268E-19
   106.8324       -1.2906968E-19
   106.9593       -1.2586316E-19
   107.0861       -1.2251933E-19
   107.2130       -1.1917634E-19
   107.3398       -1.1599222E-19
   107.4667       -1.1313811E-19
   107.5935       -1.1079176E-19
   107.7203       -1.0913108E-19
   107.8472       -1.0832459E-19
   107.9740       -1.0852289E-19