  -7.200000       -3.8528493E-18
  -7.073156       -3.8528572E-18
  -6.946313       -3.8528725E-18
  -6.819469       -3.8528940E-18
  -6.692626       -3.8529213E-18
  -6.565782       -3.8529523E-18
  -6.438938       -3.8529858E-18
  -6.312095       -3.8530205E-18
  -6.185251       -3.8530549E-18
  -6.058407       -3.8530863E-18
  -5.931563       -3.8531144E-18
  -5.804720       -3.8531388E-18
  -5.677876       -3.8531578E-18
  -5.551033       -3.8531719E-18
  -5.424189       -3.8531810E-18
  -5.297346       -3.8531856E-18
  -5.170502       -3.8531864E-18
  -5.043658       -3.8531851E-18
  -4.916814       -3.8531818E-18
  -4.789971       -3.8531781E-18
  -4.663127       -3.8531752E-18
  -4.536283       -3.8531731E-18
  -4.409440       -3.8531727E-18
  -4.282596       -3.8531744E-18
  -4.155753       -3.8531789E-18
  -4.028909       -3.8531851E-18
  -3.902065       -3.8531938E-18
  -3.775222       -3.8532046E-18
  -3.648378       -3.8532166E-18
  -3.521534       -3.8532302E-18
  -3.394691       -3.8532455E-18
  -3.267847       -3.8532621E-18
  -3.141004       -3.8532807E-18
  -3.014160       -3.8533014E-18
  -2.887316       -3.8533249E-18
  -2.760473       -3.8533526E-18
  -2.633629       -3.8533845E-18
  -2.506785       -3.8534205E-18
  -2.379942       -3.8534610E-18
  -2.253098       -3.8535065E-18
  -2.126254       -3.8535561E-18
  -1.999411       -3.8536095E-18
  -1.872567       -3.8536653E-18
  -1.745723       -3.8537228E-18
  -1.618880       -3.8537799E-18
  -1.492036       -3.8538361E-18
  -1.365193       -3.8538895E-18
  -1.238349       -3.8539399E-18
  -1.111505       -3.8539863E-18
 -0.9846617       -3.8540276E-18
 -0.8578180       -3.8540644E-18
 -0.7309744       -3.8540971E-18
 -0.6041307       -3.8541261E-18
 -0.4772871       -3.8541521E-18
 -0.3504435       -3.8541765E-18
 -0.2235998       -3.8542005E-18
 -9.6756198E-02   -3.8542249E-18
  3.0087441E-02   -3.8542514E-18
  0.1569311       -3.8542807E-18
  0.2837747       -3.8543147E-18
  0.4106184       -3.8543539E-18
  0.5374620       -3.8543999E-18
  0.6643056       -3.8544528E-18
  0.7911493       -3.8545140E-18
  0.9179929       -3.8545831E-18
   1.044837       -3.8546608E-18
   1.171680       -3.8547481E-18
   1.298524       -3.8548436E-18
   1.425367       -3.8549487E-18
   1.552211       -3.8550612E-18
   1.679055       -3.8551811E-18
   1.805898       -3.8553077E-18
   1.932742       -3.8554388E-18
   2.059586       -3.8555724E-18
   2.186429       -3.8557072E-18
   2.313273       -3.8558416E-18
   2.440117       -3.8559731E-18
   2.566960       -3.8560989E-18
   2.693804       -3.8562180E-18
   2.820647       -3.8563293E-18
   2.947491       -3.8564314E-18
   3.074335       -3.8565241E-18
   3.201178       -3.8566080E-18
   3.328022       -3.8566841E-18
   3.454866       -3.8567532E-18
   3.581709       -3.8568173E-18
   3.708553       -3.8568768E-18
   3.835397       -3.8569347E-18
   3.962240       -3.8569922E-18
   4.089084       -3.8570501E-18
   4.215928       -3.8571097E-18
   4.342771       -3.8571701E-18
   4.469615       -3.8572317E-18
   4.596458       -3.8572933E-18
   4.723302       -3.8573550E-18
   4.850146       -3.8574137E-18
   4.976989       -3.8574695E-18
   5.103833       -3.8575204E-18
   5.230677       -3.8575655E-18
   5.357520       -3.8576035E-18
   5.484364       -3.8576345E-18
   5.611207       -3.8576598E-18
   5.738051       -3.8576780E-18
   5.864895       -3.8576916E-18
   5.991738       -3.8577015E-18
   6.118582       -3.8577090E-18
   6.245426       -3.8577164E-18
   6.372270       -3.8577247E-18
   6.499113       -3.8577367E-18
   6.625957       -3.8577537E-18
   6.752800       -3.8577772E-18
   6.879644       -3.8578082E-18
   7.006487       -3.8578480E-18
   7.133331       -3.8578951E-18
   7.260175       -3.8579501E-18
   7.387019       -3.8580126E-18
   7.513862       -3.8580804E-18
   7.640706       -3.8581519E-18
   7.767550       -3.8582260E-18
   7.894393       -3.8583008E-18
   8.021236       -3.8583740E-18
   8.148081       -3.8584452E-18
   8.274924       -3.8585118E-18
   8.401768       -3.8585742E-18
   8.528611       -3.8586313E-18
   8.655455       -3.8586830E-18
   8.782298       -3.8587301E-18
   8.909142       -3.8587727E-18
   9.035986       -3.8588124E-18
   9.162829       -3.8588497E-18
   9.289673       -3.8588852E-18
   9.416516       -3.8589204E-18
   9.543361       -3.8589560E-18
   9.670204       -3.8589924E-18
   9.797048       -3.8590296E-18
   9.923891       -3.8590685E-18
   10.05073       -3.8591082E-18
   10.17758       -3.8591491E-18
   10.30442       -3.8591905E-18
   10.43127       -3.8592314E-18
   10.55811       -3.8592707E-18
   10.68495       -3.8593079E-18
   10.81180       -3.8593418E-18
   10.93864       -3.8593729E-18
   11.06548       -3.8594006E-18
   11.19233       -3.8594246E-18
   11.31917       -3.8594457E-18
   11.44602       -3.8594643E-18
   11.57286       -3.8594816E-18
   11.69970       -3.8594994E-18
   11.82655       -3.8595189E-18
   11.95339       -3.8595400E-18
   12.08023       -3.8595648E-18
   12.20708       -3.8595937E-18
   12.33392       -3.8596272E-18
   12.46076       -3.8596653E-18
   12.58761       -3.8597075E-18
   12.71445       -3.8597538E-18
   12.84130       -3.8598013E-18
   12.96814       -3.8598501E-18
   13.09498       -3.8598977E-18
   13.22183       -3.8599432E-18
   13.34867       -3.8599854E-18
   13.47551       -3.8600234E-18
   13.60236       -3.8600569E-18
   13.72920       -3.8600851E-18
   13.85604       -3.8601091E-18
   13.98289       -3.8601293E-18
   14.10973       -3.8601467E-18
   14.23658       -3.8601624E-18
   14.36342       -3.8601773E-18
   14.49026       -3.8601926E-18
   14.61711       -3.8602091E-18
   14.74395       -3.8602265E-18
   14.87079       -3.8602464E-18
   14.99764       -3.8602683E-18
   15.12448       -3.8602919E-18
   15.25132       -3.8603167E-18
   15.37817       -3.8603423E-18
   15.50501       -3.8603688E-18
   15.63186       -3.8603953E-18
   15.75870       -3.8604217E-18
   15.88554       -3.8604470E-18
   16.01239       -3.8604709E-18
   16.13923       -3.8604933E-18
   16.26607       -3.8605152E-18
   16.39292       -3.8605355E-18
   16.51976       -3.8605566E-18
   16.64660       -3.8605768E-18
   16.77345       -3.8605975E-18
   16.90029       -3.8606186E-18
   17.02714       -3.8606397E-18
   17.15398       -3.8606620E-18
   17.28082       -3.8606852E-18
   17.40767       -3.8607092E-18
   17.53451       -3.8607332E-18
   17.66135       -3.8607576E-18
   17.78820       -3.8607824E-18
   17.91504       -3.8608072E-18
   18.04188       -3.8608308E-18
   18.16873       -3.8608531E-18
   18.29557       -3.8608750E-18
   18.42241       -3.8608961E-18
   18.54926       -3.8609164E-18
   18.67610       -3.8609354E-18
   18.80295       -3.8609540E-18
   18.92979       -3.8609722E-18
   19.05663       -3.8609896E-18
   19.18348       -3.8610065E-18
   19.31032       -3.8610223E-18
   19.43716       -3.8610367E-18
   19.56401       -3.8610487E-18
   19.69085       -3.8610582E-18
   19.81770       -3.8610636E-18
   19.94454       -3.8610649E-18
   20.07138       -3.8610607E-18
   20.19823       -3.8610516E-18
   20.32507       -3.8610376E-18
   20.45191       -3.8610198E-18
   20.57876       -3.8609987E-18
   20.70560       -3.8609755E-18
   20.83245       -3.8609528E-18
   20.95929       -3.8609321E-18
   21.08613       -3.8609147E-18
   21.21297       -3.8609031E-18
   21.33982       -3.8608990E-18
   21.46666       -3.8609023E-18
   21.59351       -3.8609143E-18
   21.72035       -3.8609342E-18
   21.84719       -3.8609615E-18
   21.97404       -3.8609958E-18
   22.10088       -3.8610351E-18
   22.22772       -3.8610777E-18
   22.35457       -3.8611211E-18
   22.48141       -3.8611641E-18
   22.60826       -3.8612042E-18
   22.73510       -3.8612410E-18
   22.86194       -3.8612737E-18
   22.98879       -3.8613010E-18
   23.11563       -3.8613229E-18
   23.24247       -3.8613403E-18
   23.36932       -3.8613544E-18
   23.49616       -3.8613655E-18
   23.62300       -3.8613763E-18
   23.74985       -3.8613870E-18
   23.87669       -3.8613986E-18
   24.00353       -3.8614131E-18
   24.13038       -3.8614305E-18
   24.25722       -3.8614512E-18
   24.38407       -3.8614743E-18
   24.51091       -3.8614991E-18
   24.63775       -3.8615256E-18
   24.76460       -3.8615529E-18
   24.89144       -3.8615785E-18
   25.01828       -3.8616021E-18
   25.14513       -3.8616224E-18
   25.27197       -3.8616389E-18
   25.39882       -3.8616517E-18
   25.52566       -3.8616600E-18
   25.65250       -3.8616650E-18
   25.77935       -3.8616658E-18
   25.90619       -3.8616646E-18
   26.03303       -3.8616608E-18
   26.15988       -3.8616567E-18
   26.28672       -3.8616526E-18
   26.41356       -3.8616488E-18
   26.54041       -3.8616468E-18
   26.66725       -3.8616464E-18
   26.79410       -3.8616472E-18
   26.92094       -3.8616493E-18
   27.04778       -3.8616530E-18
   27.17463       -3.8616584E-18
   27.30147       -3.8616646E-18
   27.42831       -3.8616720E-18
   27.55516       -3.8616803E-18
   27.68200       -3.8616902E-18
   27.80884       -3.8617018E-18
   27.93569       -3.8617146E-18
   28.06253       -3.8617303E-18
   28.18937       -3.8617481E-18
   28.31622       -3.8617680E-18
   28.44306       -3.8617899E-18
   28.56991       -3.8618135E-18
   28.69675       -3.8618383E-18
   28.82359       -3.8618627E-18
   28.95044       -3.8618862E-18
   29.07728       -3.8619073E-18
   29.20412       -3.8619255E-18
   29.33097       -3.8619396E-18
   29.45781       -3.8619483E-18
   29.58466       -3.8619516E-18
   29.71150       -3.8619491E-18
   29.83834       -3.8619404E-18
   29.96519       -3.8619268E-18
   30.09203       -3.8619094E-18
   30.21887       -3.8618883E-18
   30.34572       -3.8618664E-18
   30.47256       -3.8618449E-18
   30.59941       -3.8618250E-18
   30.72625       -3.8618089E-18
   30.85309       -3.8617977E-18
   30.97993       -3.8617924E-18
   31.10678       -3.8617940E-18
   31.23362       -3.8618027E-18
   31.36047       -3.8618192E-18
   31.48731       -3.8618420E-18
   31.61415       -3.8618701E-18
   31.74100       -3.8619024E-18
   31.86784       -3.8619367E-18
   31.99468       -3.8619727E-18
   32.12153       -3.8620078E-18
   32.24837       -3.8620413E-18
   32.37521       -3.8620715E-18
   32.50206       -3.8620976E-18
   32.62890       -3.8621187E-18
   32.75574       -3.8621344E-18
   32.88259       -3.8621456E-18
   33.00943       -3.8621522E-18
   33.13628       -3.8621547E-18
   33.26312       -3.8621543E-18
   33.38997       -3.8621509E-18
   33.51681       -3.8621476E-18
   33.64365       -3.8621439E-18
   33.77050       -3.8621410E-18
   33.89734       -3.8621402E-18
   34.02418       -3.8621418E-18
   34.15103       -3.8621468E-18
   34.27787       -3.8621555E-18
   34.40471       -3.8621679E-18
   34.53156       -3.8621840E-18
   34.65840       -3.8622047E-18
   34.78524       -3.8622295E-18
   34.91209       -3.8622577E-18
   35.03893       -3.8622891E-18
   35.16578       -3.8623230E-18
   35.29262       -3.8623590E-18
   35.41946       -3.8623950E-18
   35.54631       -3.8624309E-18
   35.67315       -3.8624657E-18
   35.80000       -3.8624980E-18
   35.92684       -3.8625265E-18
   36.05368       -3.8625517E-18
   36.18052       -3.8625720E-18
   36.30737       -3.8625885E-18
   36.43421       -3.8626001E-18
   36.56105       -3.8626084E-18
   36.68790       -3.8626133E-18
   36.81474       -3.8626162E-18
   36.94159       -3.8626179E-18
   37.06843       -3.8626200E-18
   37.19527       -3.8626237E-18
   37.32212       -3.8626286E-18
   37.44896       -3.8626369E-18
   37.57581       -3.8626493E-18
   37.70265       -3.8626659E-18
   37.82949       -3.8626874E-18
   37.95634       -3.8627130E-18
   38.08318       -3.8627428E-18
   38.21002       -3.8627751E-18
   38.33687       -3.8628094E-18
   38.46371       -3.8628445E-18
   38.59055       -3.8628780E-18
   38.71740       -3.8629091E-18
   38.84424       -3.8629359E-18
   38.97108       -3.8629570E-18
   39.09793       -3.8629723E-18
   39.22477       -3.8629798E-18
   39.35162       -3.8629798E-18
   39.47846       -3.8629732E-18
   39.60530       -3.8629608E-18
   39.73215       -3.8629438E-18
   39.85899       -3.8629256E-18
   39.98583       -3.8629074E-18
   40.11268       -3.8628925E-18
   40.23952       -3.8628826E-18
   40.36636       -3.8628797E-18
   40.49321       -3.8628863E-18
   40.62005       -3.8629024E-18
   40.74689       -3.8629293E-18
   40.87374       -3.8629649E-18
   41.00058       -3.8630079E-18
   41.12743       -3.8630567E-18
   41.25427       -3.8631080E-18
   41.38111       -3.8631593E-18
   41.50796       -3.8632068E-18
   41.63480       -3.8632486E-18
   41.76165       -3.8632817E-18
   41.88849       -3.8633040E-18
   42.01533       -3.8633148E-18
   42.14218       -3.8633136E-18
   42.26902       -3.8633007E-18
   42.39586       -3.8632772E-18
   42.52271       -3.8632461E-18
   42.64955       -3.8632089E-18
   42.77639       -3.8631688E-18
   42.90324       -3.8631287E-18
   43.03008       -3.8630906E-18
   43.15693       -3.8630575E-18
   43.28377       -3.8630315E-18
   43.41061       -3.8630129E-18
   43.53746       -3.8630038E-18
   43.66430       -3.8630034E-18
   43.79114       -3.8630116E-18
   43.91799       -3.8630269E-18
   44.04483       -3.8630484E-18
   44.17167       -3.8630741E-18
   44.29852       -3.8631026E-18
   44.42536       -3.8631312E-18
   44.55220       -3.8631593E-18
   44.67905       -3.8631858E-18
   44.80589       -3.8632089E-18
   44.93274       -3.8632296E-18
   45.05958       -3.8632470E-18
   45.18642       -3.8632623E-18
   45.31327       -3.8632763E-18
   45.44011       -3.8632896E-18
   45.56696       -3.8633028E-18
   45.69380       -3.8633169E-18
   45.82064       -3.8633330E-18
   45.94748       -3.8633499E-18
   46.07433       -3.8633694E-18
   46.20117       -3.8633909E-18
   46.32801       -3.8634145E-18
   46.45486       -3.8634385E-18
   46.58170       -3.8634637E-18
   46.70855       -3.8634906E-18
   46.83539       -3.8635175E-18
   46.96223       -3.8635443E-18
   47.08908       -3.8635708E-18
   47.21592       -3.8635969E-18
   47.34277       -3.8636225E-18
   47.46961       -3.8636477E-18
   47.59645       -3.8636713E-18
   47.72330       -3.8636932E-18
   47.85014       -3.8637135E-18
   47.97698       -3.8637309E-18
   48.10383       -3.8637441E-18
   48.23067       -3.8637532E-18
   48.35751       -3.8637577E-18
   48.48436       -3.8637582E-18
   48.61120       -3.8637544E-18
   48.73804       -3.8637466E-18
   48.86489       -3.8637354E-18
   48.99173       -3.8637238E-18
   49.11858       -3.8637123E-18
   49.24542       -3.8637032E-18
   49.37226       -3.8636974E-18
   49.49911       -3.8636969E-18
   49.62595       -3.8637027E-18
   49.75279       -3.8637160E-18
   49.87964       -3.8637358E-18
   50.00648       -3.8637631E-18
   50.13332       -3.8637954E-18
   50.26017       -3.8638322E-18
   50.38701       -3.8638723E-18
   50.51385       -3.8639120E-18
   50.64070       -3.8639497E-18
   50.76754       -3.8639840E-18
   50.89439       -3.8640117E-18
   51.02123       -3.8640328E-18
   51.14808       -3.8640456E-18
   51.27492       -3.8640489E-18
   51.40176       -3.8640440E-18
   51.52861       -3.8640307E-18
   51.65545       -3.8640113E-18
   51.78229       -3.8639869E-18
   51.90914       -3.8639604E-18
   52.03598       -3.8639339E-18
   52.16282       -3.8639095E-18
   52.28967       -3.8638905E-18
   52.41651       -3.8638785E-18
   52.54335       -3.8638752E-18
   52.67020       -3.8638822E-18
   52.79704       -3.8638988E-18
   52.92389       -3.8639248E-18
   53.05073       -3.8639596E-18
   53.17757       -3.8640005E-18
   53.30442       -3.8640456E-18
   53.43126       -3.8640923E-18
   53.55810       -3.8641366E-18
   53.68495       -3.8641763E-18
   53.81179       -3.8642090E-18
   53.93863       -3.8642330E-18
   54.06548       -3.8642474E-18
   54.19232       -3.8642524E-18
   54.31916       -3.8642487E-18
   54.44601       -3.8642375E-18
   54.57285       -3.8642206E-18
   54.69970       -3.8642011E-18
   54.82654       -3.8641813E-18
   54.95338       -3.8641631E-18
   55.08023       -3.8641494E-18
   55.20707       -3.8641411E-18
   55.33392       -3.8641391E-18
   55.46076       -3.8641436E-18
   55.58760       -3.8641540E-18
   55.71444       -3.8641701E-18
   55.84129       -3.8641895E-18
   55.96813       -3.8642110E-18
   56.09497       -3.8642330E-18
   56.22182       -3.8642528E-18
   56.34866       -3.8642685E-18
   56.47551       -3.8642797E-18
   56.60235       -3.8642851E-18
   56.72919       -3.8642847E-18
   56.85604       -3.8642789E-18
   56.98288       -3.8642669E-18
   57.10973       -3.8642507E-18
   57.23657       -3.8642305E-18
   57.36341       -3.8642069E-18
   57.49026       -3.8641813E-18
   57.61710       -3.8641544E-18
   57.74394       -3.8641271E-18
   57.87079       -3.8641014E-18
   57.99763       -3.8640758E-18
   58.12447       -3.8640514E-18
   58.25132       -3.8640295E-18
   58.37816       -3.8640088E-18
   58.50500       -3.8639902E-18
   58.63185       -3.8639749E-18
   58.75869       -3.8639621E-18
   58.88554       -3.8639538E-18
   59.01238       -3.8639492E-18
   59.13923       -3.8639492E-18
   59.26607       -3.8639546E-18
   59.39291       -3.8639658E-18
   59.51975       -3.8639827E-18
   59.64660       -3.8640051E-18
   59.77344       -3.8640328E-18
   59.90028       -3.8640642E-18
   60.02713       -3.8640998E-18
   60.15397       -3.8641370E-18
   60.28082       -3.8641746E-18
   60.40766       -3.8642115E-18
   60.53450       -3.8642458E-18
   60.66135       -3.8642764E-18
   60.78819       -3.8643020E-18
   60.91504       -3.8643227E-18
   61.04188       -3.8643384E-18
   61.16872       -3.8643496E-18
   61.29557       -3.8643570E-18
   61.42241       -3.8643616E-18
   61.54925       -3.8643641E-18
   61.67610       -3.8643666E-18
   61.80294       -3.8643694E-18
   61.92978       -3.8643744E-18
   62.05663       -3.8643814E-18
   62.18347       -3.8643901E-18
   62.31031       -3.8644005E-18
   62.43716       -3.8644112E-18
   62.56400       -3.8644216E-18
   62.69085       -3.8644294E-18
   62.81769       -3.8644340E-18
   62.94453       -3.8644340E-18
   63.07138       -3.8644290E-18
   63.19822       -3.8644170E-18
   63.32506       -3.8643984E-18
   63.45191       -3.8643740E-18
   63.57875       -3.8643442E-18
   63.70559       -3.8643103E-18
   63.83244       -3.8642743E-18
   63.95928       -3.8642375E-18
   64.08613       -3.8642015E-18
   64.21297       -3.8641689E-18
   64.33981       -3.8641403E-18
   64.46666       -3.8641176E-18
   64.59350       -3.8641019E-18
   64.72034       -3.8640923E-18
   64.84719       -3.8640894E-18
   64.97403       -3.8640919E-18
   65.10088       -3.8640990E-18
   65.22771       -3.8641085E-18
   65.35456       -3.8641192E-18
   65.48141       -3.8641292E-18
   65.60825       -3.8641378E-18
   65.73509       -3.8641428E-18
   65.86194       -3.8641436E-18
   65.98878       -3.8641407E-18
   66.11562       -3.8641341E-18
   66.24247       -3.8641238E-18
   66.36931       -3.8641105E-18
   66.49615       -3.8640948E-18
   66.62300       -3.8640783E-18
   66.74984       -3.8640613E-18
   66.87669       -3.8640452E-18
   67.00353       -3.8640303E-18
   67.13037       -3.8640179E-18
   67.25722       -3.8640067E-18
   67.38406       -3.8639985E-18
   67.51090       -3.8639927E-18
   67.63775       -3.8639894E-18
   67.76459       -3.8639885E-18
   67.89143       -3.8639906E-18
   68.01828       -3.8639951E-18
   68.14512       -3.8640026E-18
   68.27197       -3.8640129E-18
   68.39881       -3.8640266E-18
   68.52565       -3.8640431E-18
   68.65250       -3.8640634E-18
   68.77934       -3.8640857E-18
   68.90618       -3.8641114E-18
   69.03303       -3.8641391E-18
   69.15987       -3.8641684E-18
   69.28671       -3.8641978E-18
   69.41356       -3.8642268E-18
   69.54041       -3.8642536E-18
   69.66724       -3.8642764E-18
   69.79409       -3.8642958E-18
   69.92093       -3.8643095E-18
   70.04778       -3.8643186E-18
   70.17462       -3.8643219E-18
   70.30146       -3.8643194E-18
   70.42831       -3.8643120E-18
   70.55515       -3.8643016E-18
   70.68199       -3.8642876E-18
   70.80884       -3.8642723E-18
   70.93568       -3.8642569E-18
   71.06252       -3.8642429E-18
   71.18937       -3.8642309E-18
   71.31622       -3.8642214E-18
   71.44305       -3.8642152E-18
   71.56990       -3.8642123E-18
   71.69675       -3.8642115E-18
   71.82359       -3.8642127E-18
   71.95043       -3.8642139E-18
   72.07728       -3.8642139E-18
   72.20412       -3.8642110E-18
   72.33096       -3.8642044E-18
   72.45780       -3.8641928E-18
   72.58465       -3.8641755E-18
   72.71149       -3.8641523E-18
   72.83833       -3.8641238E-18
   72.96518       -3.8640907E-18
   73.09203       -3.8640547E-18
   73.21886       -3.8640175E-18
   73.34571       -3.8639807E-18
   73.47256       -3.8639472E-18
   73.59940       -3.8639186E-18
   73.72624       -3.8638963E-18
   73.85309       -3.8638818E-18
   73.97993       -3.8638756E-18
   74.10677       -3.8638789E-18
   74.23362       -3.8638909E-18
   74.36046       -3.8639112E-18
   74.48730       -3.8639389E-18
   74.61415       -3.8639724E-18
   74.74099       -3.8640104E-18
   74.86784       -3.8640518E-18
   74.99467       -3.8640944E-18
   75.12152       -3.8641370E-18
   75.24837       -3.8641784E-18
   75.37521       -3.8642172E-18
   75.50205       -3.8642532E-18
   75.62890       -3.8642855E-18
   75.75574       -3.8643140E-18
   75.88258       -3.8643393E-18
   76.00943       -3.8643603E-18
   76.13627       -3.8643781E-18
   76.26311       -3.8643934E-18
   76.38996       -3.8644063E-18
   76.51680       -3.8644170E-18
   76.64365       -3.8644257E-18
   76.77049       -3.8644327E-18
   76.89733       -3.8644369E-18
   77.02418       -3.8644389E-18
   77.15102       -3.8644389E-18
   77.27786       -3.8644356E-18
   77.40471       -3.8644302E-18
   77.53155       -3.8644216E-18
   77.65839       -3.8644108E-18
   77.78524       -3.8643980E-18
   77.91208       -3.8643835E-18
   78.03893       -3.8643678E-18
   78.16577       -3.8643525E-18
   78.29261       -3.8643376E-18
   78.41946       -3.8643248E-18
   78.54630       -3.8643136E-18
   78.67314       -3.8643045E-18
   78.79999       -3.8642987E-18
   78.92683       -3.8642950E-18
   79.05367       -3.8642933E-18
   79.18052       -3.8642942E-18
   79.30737       -3.8642967E-18
   79.43420       -3.8642991E-18
   79.56105       -3.8643020E-18
   79.68790       -3.8643053E-18
   79.81474       -3.8643078E-18
   79.94158       -3.8643099E-18
   80.06842       -3.8643115E-18
   80.19527       -3.8643136E-18
   80.32211       -3.8643165E-18
   80.44895       -3.8643202E-18
   80.57580       -3.8643264E-18
   80.70264       -3.8643351E-18
   80.82948       -3.8643475E-18
   80.95633       -3.8643645E-18
   81.08318       -3.8643852E-18
   81.21001       -3.8644108E-18
   81.33686       -3.8644406E-18
   81.46371       -3.8644733E-18
   81.59055       -3.8645080E-18
   81.71739       -3.8645440E-18
   81.84424       -3.8645791E-18
   81.97108       -3.8646110E-18
   82.09792       -3.8646391E-18
   82.22476       -3.8646610E-18
   82.35161       -3.8646763E-18
   82.47845       -3.8646834E-18
   82.60529       -3.8646825E-18
   82.73214       -3.8646743E-18
   82.85899       -3.8646590E-18
   82.98582       -3.8646383E-18
   83.11267       -3.8646135E-18
   83.23952       -3.8645870E-18
   83.36636       -3.8645601E-18
   83.49320       -3.8645349E-18
   83.62005       -3.8645130E-18
   83.74689       -3.8644956E-18
   83.87373       -3.8644840E-18
   84.00058       -3.8644790E-18
   84.12742       -3.8644803E-18
   84.25426       -3.8644873E-18
   84.38111       -3.8645001E-18
   84.50795       -3.8645171E-18
   84.63480       -3.8645374E-18
   84.76163       -3.8645609E-18
   84.88848       -3.8645845E-18
   85.01533       -3.8646081E-18
   85.14217       -3.8646308E-18
   85.26901       -3.8646523E-18
   85.39586       -3.8646714E-18
   85.52270       -3.8646871E-18
   85.64954       -3.8647003E-18
   85.77639       -3.8647107E-18
   85.90323       -3.8647173E-18
   86.03008       -3.8647218E-18
   86.15692       -3.8647239E-18
   86.28376       -3.8647243E-18
   86.41061       -3.8647222E-18
   86.53745       -3.8647193E-18
   86.66429       -3.8647152E-18
   86.79114       -3.8647115E-18
   86.91798       -3.8647065E-18
   87.04482       -3.8647020E-18
   87.17167       -3.8646987E-18
   87.29851       -3.8646962E-18
   87.42535       -3.8646945E-18
   87.55220       -3.8646945E-18
   87.67904       -3.8646966E-18
   87.80589       -3.8647007E-18
   87.93273       -3.8647078E-18
   88.05957       -3.8647181E-18
   88.18642       -3.8647318E-18
   88.31326       -3.8647495E-18
   88.44010       -3.8647710E-18
   88.56695       -3.8647950E-18
   88.69379       -3.8648219E-18
   88.82063       -3.8648505E-18
   88.94748       -3.8648802E-18
   89.07433       -3.8649096E-18
   89.20116       -3.8649369E-18
   89.32801       -3.8649609E-18
   89.45486       -3.8649807E-18
   89.58170       -3.8649964E-18
   89.70854       -3.8650072E-18
   89.83538       -3.8650134E-18
   89.96223       -3.8650163E-18
   90.08907       -3.8650163E-18
   90.21591       -3.8650151E-18
   90.34276       -3.8650142E-18
   90.46960       -3.8650155E-18
   90.59644       -3.8650200E-18
   90.72329       -3.8650299E-18
   90.85014       -3.8650436E-18
   90.97697       -3.8650626E-18
   91.10382       -3.8650862E-18
   91.23067       -3.8651135E-18
   91.35751       -3.8651424E-18
   91.48435       -3.8651714E-18
   91.61120       -3.8651983E-18
   91.73804       -3.8652202E-18
   91.86488       -3.8652363E-18
   91.99173       -3.8652446E-18
   92.11857       -3.8652429E-18
   92.24541       -3.8652326E-18
   92.37225       -3.8652136E-18
   92.49910       -3.8651859E-18
   92.62595       -3.8651520E-18
   92.75278       -3.8651143E-18
   92.87963       -3.8650754E-18
   93.00648       -3.8650395E-18
   93.13332       -3.8650097E-18
   93.26016       -3.8649886E-18
   93.38701       -3.8649795E-18
   93.51385       -3.8649840E-18
   93.64069       -3.8650043E-18
   93.76754       -3.8650411E-18
   93.89438       -3.8650924E-18
   94.02122       -3.8651577E-18
   94.14807       -3.8652343E-18
   94.27491       -3.8653190E-18
   94.40176       -3.8654084E-18
   94.52859       -3.8654990E-18
   94.65544       -3.8655866E-18
   94.78229       -3.8656673E-18
   94.90913       -3.8657384E-18
   95.03597       -3.8657963E-18
   95.16282       -3.8658389E-18
   95.28966       -3.8658637E-18
   95.41650       -3.8658700E-18
   95.54335       -3.8658563E-18
   95.67019       -3.8658236E-18
   95.79704       -3.8657711E-18
   95.92388       -3.8657004E-18
   96.05072       -3.8656131E-18
   96.17757       -3.8655126E-18
   96.30441       -3.8654018E-18
   96.43125       -3.8652847E-18
   96.55810       -3.8651673E-18
   96.68494       -3.8650560E-18
   96.81178       -3.8649559E-18
   96.93863       -3.8648749E-18
   97.06547       -3.8648198E-18
   97.19231       -3.8647975E-18
   97.31916       -3.8648136E-18
   97.44600       -3.8648732E-18
   97.57285       -3.8649799E-18
   97.69969       -3.8651350E-18
   97.82653       -3.8653381E-18
   97.95338       -3.8655858E-18
   98.08022       -3.8658741E-18
   98.20706       -3.8661950E-18
   98.33391       -3.8665387E-18
   98.46075       -3.8668932E-18
   98.58759       -3.8672456E-18
   98.71444       -3.8675793E-18
   98.84129       -3.8678796E-18
   98.96812       -3.8681311E-18
   99.09497       -3.8683159E-18
   99.22182       -3.8684197E-18
   99.34866       -3.8684288E-18
   99.47550       -3.8683325E-18
   99.60234       -3.8681215E-18
   99.72919       -3.8677919E-18
   99.85603       -3.8673436E-18
   99.98287       -3.8667799E-18
   100.1097       -3.8661102E-18
   100.2366       -3.8653505E-18
   100.3634       -3.8645196E-18
   100.4902       -3.8636436E-18
   100.6171       -3.8627527E-18
   100.7439       -3.8618809E-18
   100.8708       -3.8610657E-18
   100.9976       -3.8603469E-18
   101.1245       -3.8597658E-18
   101.2513       -3.8593617E-18
   101.3782       -3.8591719E-18
   101.5050       -3.8592302E-18
   101.6318       -3.8595635E-18
   101.7587       -3.8601909E-18
   101.8855       -3.8611219E-18
   102.0124       -3.8623540E-18
   102.1392       -3.8638736E-18
   102.2661       -3.8656524E-18
   102.3929       -3.8676480E-18
   102.5197       -3.8698061E-18
   102.6466       -3.8720568E-18
   102.7734       -3.8743204E-18
   102.9003       -3.8765079E-18
   103.0271       -3.8785209E-18
   103.1540       -3.8802596E-18
   103.2808       -3.8816228E-18
   103.4077       -3.8825149E-18
   103.5345       -3.8828474E-18
   103.6613       -3.8825459E-18
   103.7882       -3.8815521E-18
   103.9150       -3.8798303E-18
   104.0419       -3.8773694E-18
   104.1687       -3.8741864E-18
   104.2956       -3.8703301E-18
   104.4224       -3.8658786E-18
   104.5492       -3.8609445E-18
   104.6761       -3.8556700E-18
   104.8029       -3.8502263E-18
   104.9298       -3.8448099E-18
   105.0566       -3.8396376E-18
   105.1835       -3.8349392E-18
   105.3103       -3.8309505E-18
   105.4371       -3.8279061E-18
   105.5640       -3.8260276E-18
   105.6908       -3.8255159E-18
   105.8177       -3.8265388E-18
   105.9445       -3.8292221E-18
   106.0714       -3.8336405E-18
   106.1982       -3.8398096E-18
   106.3251       -3.8476769E-18
   106.4519       -3.8571192E-18
   106.5787       -3.8679371E-18
   106.7056       -3.8798576E-18
   106.8324       -3.8925337E-18
   106.9593       -3.9055548E-18
   107.0861       -3.9184501E-18
   107.2130       -3.9307052E-18
   107.3398       -3.9417762E-18
   107.4667       -3.9511051E-18
   107.5935       -3.9581461E-18
   107.7203       -3.9623817E-18
   107.8472       -3.9633482E-18
   107.9740       -3.9606611E-18