  -7.200000        1.0339473E-17
  -7.073156        1.0339471E-17
  -6.946313        1.0339466E-17
  -6.819469        1.0339460E-17
  -6.692626        1.0339452E-17
  -6.565782        1.0339445E-17
  -6.438938        1.0339439E-17
  -6.312095        1.0339434E-17
  -6.185251        1.0339433E-17
  -6.058407        1.0339432E-17
  -5.931563        1.0339433E-17
  -5.804720        1.0339437E-17
  -5.677876        1.0339442E-17
  -5.551033        1.0339447E-17
  -5.424189        1.0339451E-17
  -5.297346        1.0339455E-17
  -5.170502        1.0339457E-17
  -5.043658        1.0339460E-17
  -4.916814        1.0339461E-17
  -4.789971        1.0339462E-17
  -4.663127        1.0339463E-17
  -4.536283        1.0339466E-17
  -4.409440        1.0339469E-17
  -4.282596        1.0339473E-17
  -4.155753        1.0339478E-17
  -4.028909        1.0339485E-17
  -3.902065        1.0339491E-17
  -3.775222        1.0339498E-17
  -3.648378        1.0339503E-17
  -3.521534        1.0339505E-17
  -3.394691        1.0339504E-17
  -3.267847        1.0339496E-17
  -3.141004        1.0339483E-17
  -3.014160        1.0339462E-17
  -2.887316        1.0339434E-17
  -2.760473        1.0339398E-17
  -2.633629        1.0339352E-17
  -2.506785        1.0339299E-17
  -2.379942        1.0339237E-17
  -2.253098        1.0339167E-17
  -2.126254        1.0339091E-17
  -1.999411        1.0339007E-17
  -1.872567        1.0338920E-17
  -1.745723        1.0338827E-17
  -1.618880        1.0338733E-17
  -1.492036        1.0338637E-17
  -1.365193        1.0338542E-17
  -1.238349        1.0338447E-17
  -1.111505        1.0338357E-17
 -0.9846617        1.0338272E-17
 -0.8578180        1.0338192E-17
 -0.7309744        1.0338117E-17
 -0.6041307        1.0338047E-17
 -0.4772871        1.0337983E-17
 -0.3504435        1.0337923E-17
 -0.2235998        1.0337865E-17
 -9.6756198E-02    1.0337809E-17
  3.0087441E-02    1.0337753E-17
  0.1569311        1.0337698E-17
  0.2837747        1.0337643E-17
  0.4106184        1.0337590E-17
  0.5374620        1.0337538E-17
  0.6643056        1.0337492E-17
  0.7911493        1.0337451E-17
  0.9179929        1.0337418E-17
   1.044837        1.0337394E-17
   1.171680        1.0337379E-17
   1.298524        1.0337373E-17
   1.425367        1.0337375E-17
   1.552211        1.0337384E-17
   1.679055        1.0337397E-17
   1.805898        1.0337413E-17
   1.932742        1.0337431E-17
   2.059586        1.0337447E-17
   2.186429        1.0337461E-17
   2.313273        1.0337471E-17
   2.440117        1.0337476E-17
   2.566960        1.0337480E-17
   2.693804        1.0337478E-17
   2.820647        1.0337475E-17
   2.947491        1.0337470E-17
   3.074335        1.0337465E-17
   3.201178        1.0337460E-17
   3.328022        1.0337456E-17
   3.454866        1.0337452E-17
   3.581709        1.0337450E-17
   3.708553        1.0337448E-17
   3.835397        1.0337447E-17
   3.962240        1.0337446E-17
   4.089084        1.0337444E-17
   4.215928        1.0337442E-17
   4.342771        1.0337441E-17
   4.469615        1.0337437E-17
   4.596458        1.0337434E-17
   4.723302        1.0337432E-17
   4.850146        1.0337428E-17
   4.976989        1.0337425E-17
   5.103833        1.0337422E-17
   5.230677        1.0337418E-17
   5.357520        1.0337414E-17
   5.484364        1.0337410E-17
   5.611207        1.0337407E-17
   5.738051        1.0337402E-17
   5.864895        1.0337398E-17
   5.991738        1.0337392E-17
   6.118582        1.0337385E-17
   6.245426        1.0337378E-17
   6.372270        1.0337370E-17
   6.499113        1.0337364E-17
   6.625957        1.0337356E-17
   6.752800        1.0337350E-17
   6.879644        1.0337344E-17
   7.006487        1.0337340E-17
   7.133331        1.0337336E-17
   7.260175        1.0337332E-17
   7.387019        1.0337329E-17
   7.513862        1.0337327E-17
   7.640706        1.0337324E-17
   7.767550        1.0337321E-17
   7.894393        1.0337317E-17
   8.021236        1.0337313E-17
   8.148081        1.0337307E-17
   8.274924        1.0337301E-17
   8.401768        1.0337294E-17
   8.528611        1.0337287E-17
   8.655455        1.0337279E-17
   8.782298        1.0337271E-17
   8.909142        1.0337263E-17
   9.035986        1.0337254E-17
   9.162829        1.0337243E-17
   9.289673        1.0337231E-17
   9.416516        1.0337218E-17
   9.543361        1.0337203E-17
   9.670204        1.0337188E-17
   9.797048        1.0337171E-17
   9.923891        1.0337154E-17
   10.05073        1.0337137E-17
   10.17758        1.0337121E-17
   10.30442        1.0337107E-17
   10.43127        1.0337094E-17
   10.55811        1.0337084E-17
   10.68495        1.0337078E-17
   10.81180        1.0337073E-17
   10.93864        1.0337073E-17
   11.06548        1.0337077E-17
   11.19233        1.0337083E-17
   11.31917        1.0337091E-17
   11.44602        1.0337102E-17
   11.57286        1.0337113E-17
   11.69970        1.0337126E-17
   11.82655        1.0337140E-17
   11.95339        1.0337155E-17
   12.08023        1.0337172E-17
   12.20708        1.0337189E-17
   12.33392        1.0337209E-17
   12.46076        1.0337231E-17
   12.58761        1.0337255E-17
   12.71445        1.0337280E-17
   12.84130        1.0337307E-17
   12.96814        1.0337335E-17
   13.09498        1.0337361E-17
   13.22183        1.0337389E-17
   13.34867        1.0337413E-17
   13.47551        1.0337437E-17
   13.60236        1.0337457E-17
   13.72920        1.0337476E-17
   13.85604        1.0337492E-17
   13.98289        1.0337506E-17
   14.10973        1.0337518E-17
   14.23658        1.0337528E-17
   14.36342        1.0337537E-17
   14.49026        1.0337545E-17
   14.61711        1.0337552E-17
   14.74395        1.0337560E-17
   14.87079        1.0337567E-17
   14.99764        1.0337575E-17
   15.12448        1.0337581E-17
   15.25132        1.0337587E-17
   15.37817        1.0337591E-17
   15.50501        1.0337594E-17
   15.63186        1.0337595E-17
   15.75870        1.0337593E-17
   15.88554        1.0337590E-17
   16.01239        1.0337585E-17
   16.13923        1.0337581E-17
   16.26607        1.0337576E-17
   16.39292        1.0337572E-17
   16.51976        1.0337570E-17
   16.64660        1.0337569E-17
   16.77345        1.0337571E-17
   16.90029        1.0337577E-17
   17.02714        1.0337588E-17
   17.15398        1.0337604E-17
   17.28082        1.0337625E-17
   17.40767        1.0337652E-17
   17.53451        1.0337683E-17
   17.66135        1.0337719E-17
   17.78820        1.0337762E-17
   17.91504        1.0337808E-17
   18.04188        1.0337857E-17
   18.16873        1.0337907E-17
   18.29557        1.0337959E-17
   18.42241        1.0338009E-17
   18.54926        1.0338057E-17
   18.67610        1.0338102E-17
   18.80295        1.0338144E-17
   18.92979        1.0338180E-17
   19.05663        1.0338211E-17
   19.18348        1.0338237E-17
   19.31032        1.0338258E-17
   19.43716        1.0338275E-17
   19.56401        1.0338288E-17
   19.69085        1.0338297E-17
   19.81770        1.0338306E-17
   19.94454        1.0338313E-17
   20.07138        1.0338321E-17
   20.19823        1.0338330E-17
   20.32507        1.0338342E-17
   20.45191        1.0338355E-17
   20.57876        1.0338371E-17
   20.70560        1.0338390E-17
   20.83245        1.0338413E-17
   20.95929        1.0338437E-17
   21.08613        1.0338465E-17
   21.21297        1.0338493E-17
   21.33982        1.0338524E-17
   21.46666        1.0338554E-17
   21.59351        1.0338586E-17
   21.72035        1.0338619E-17
   21.84719        1.0338653E-17
   21.97404        1.0338689E-17
   22.10088        1.0338725E-17
   22.22772        1.0338761E-17
   22.35457        1.0338797E-17
   22.48141        1.0338832E-17
   22.60826        1.0338865E-17
   22.73510        1.0338895E-17
   22.86194        1.0338921E-17
   22.98879        1.0338945E-17
   23.11563        1.0338964E-17
   23.24247        1.0338982E-17
   23.36932        1.0338996E-17
   23.49616        1.0339009E-17
   23.62300        1.0339021E-17
   23.74985        1.0339032E-17
   23.87669        1.0339044E-17
   24.00353        1.0339055E-17
   24.13038        1.0339068E-17
   24.25722        1.0339081E-17
   24.38407        1.0339095E-17
   24.51091        1.0339108E-17
   24.63775        1.0339122E-17
   24.76460        1.0339136E-17
   24.89144        1.0339151E-17
   25.01828        1.0339165E-17
   25.14513        1.0339181E-17
   25.27197        1.0339196E-17
   25.39882        1.0339213E-17
   25.52566        1.0339232E-17
   25.65250        1.0339253E-17
   25.77935        1.0339275E-17
   25.90619        1.0339299E-17
   26.03303        1.0339325E-17
   26.15988        1.0339351E-17
   26.28672        1.0339375E-17
   26.41356        1.0339399E-17
   26.54041        1.0339422E-17
   26.66725        1.0339441E-17
   26.79410        1.0339457E-17
   26.92094        1.0339471E-17
   27.04778        1.0339482E-17
   27.17463        1.0339491E-17
   27.30147        1.0339499E-17
   27.42831        1.0339505E-17
   27.55516        1.0339510E-17
   27.68200        1.0339518E-17
   27.80884        1.0339525E-17
   27.93569        1.0339533E-17
   28.06253        1.0339544E-17
   28.18937        1.0339556E-17
   28.31622        1.0339567E-17
   28.44306        1.0339579E-17
   28.56991        1.0339590E-17
   28.69675        1.0339599E-17
   28.82359        1.0339606E-17
   28.95044        1.0339613E-17
   29.07728        1.0339618E-17
   29.20412        1.0339621E-17
   29.33097        1.0339625E-17
   29.45781        1.0339629E-17
   29.58466        1.0339634E-17
   29.71150        1.0339639E-17
   29.83834        1.0339648E-17
   29.96519        1.0339657E-17
   30.09203        1.0339667E-17
   30.21887        1.0339680E-17
   30.34572        1.0339692E-17
   30.47256        1.0339706E-17
   30.59941        1.0339719E-17
   30.72625        1.0339731E-17
   30.85309        1.0339745E-17
   30.97993        1.0339758E-17
   31.10678        1.0339773E-17
   31.23362        1.0339787E-17
   31.36047        1.0339799E-17
   31.48731        1.0339811E-17
   31.61415        1.0339822E-17
   31.74100        1.0339831E-17
   31.86784        1.0339838E-17
   31.99468        1.0339841E-17
   32.12153        1.0339842E-17
   32.24837        1.0339840E-17
   32.37521        1.0339835E-17
   32.50206        1.0339829E-17
   32.62890        1.0339822E-17
   32.75574        1.0339816E-17
   32.88259        1.0339811E-17
   33.00943        1.0339811E-17
   33.13628        1.0339812E-17
   33.26312        1.0339816E-17
   33.38997        1.0339823E-17
   33.51681        1.0339832E-17
   33.64365        1.0339843E-17
   33.77050        1.0339854E-17
   33.89734        1.0339865E-17
   34.02418        1.0339877E-17
   34.15103        1.0339886E-17
   34.27787        1.0339894E-17
   34.40471        1.0339901E-17
   34.53156        1.0339907E-17
   34.65840        1.0339912E-17
   34.78524        1.0339916E-17
   34.91209        1.0339922E-17
   35.03893        1.0339928E-17
   35.16578        1.0339933E-17
   35.29262        1.0339939E-17
   35.41946        1.0339944E-17
   35.54631        1.0339947E-17
   35.67315        1.0339950E-17
   35.80000        1.0339952E-17
   35.92684        1.0339953E-17
   36.05368        1.0339953E-17
   36.18052        1.0339953E-17
   36.30737        1.0339955E-17
   36.43421        1.0339958E-17
   36.56105        1.0339964E-17
   36.68790        1.0339974E-17
   36.81474        1.0339988E-17
   36.94159        1.0340003E-17
   37.06843        1.0340020E-17
   37.19527        1.0340038E-17
   37.32212        1.0340057E-17
   37.44896        1.0340074E-17
   37.57581        1.0340089E-17
   37.70265        1.0340100E-17
   37.82949        1.0340110E-17
   37.95634        1.0340117E-17
   38.08318        1.0340121E-17
   38.21002        1.0340122E-17
   38.33687        1.0340122E-17
   38.46371        1.0340121E-17
   38.59055        1.0340117E-17
   38.71740        1.0340113E-17
   38.84424        1.0340108E-17
   38.97108        1.0340100E-17
   39.09793        1.0340089E-17
   39.22477        1.0340078E-17
   39.35162        1.0340064E-17
   39.47846        1.0340050E-17
   39.60530        1.0340036E-17
   39.73215        1.0340023E-17
   39.85899        1.0340012E-17
   39.98583        1.0340006E-17
   40.11268        1.0340003E-17
   40.23952        1.0340005E-17
   40.36636        1.0340011E-17
   40.49321        1.0340022E-17
   40.62005        1.0340035E-17
   40.74689        1.0340051E-17
   40.87374        1.0340068E-17
   41.00058        1.0340086E-17
   41.12743        1.0340103E-17
   41.25427        1.0340117E-17
   41.38111        1.0340129E-17
   41.50796        1.0340137E-17
   41.63480        1.0340141E-17
   41.76165        1.0340141E-17
   41.88849        1.0340138E-17
   42.01533        1.0340131E-17
   42.14218        1.0340121E-17
   42.26902        1.0340108E-17
   42.39586        1.0340094E-17
   42.52271        1.0340080E-17
   42.64955        1.0340065E-17
   42.77639        1.0340050E-17
   42.90324        1.0340037E-17
   43.03008        1.0340025E-17
   43.15693        1.0340014E-17
   43.28377        1.0340006E-17
   43.41061        1.0339999E-17
   43.53746        1.0339996E-17
   43.66430        1.0339995E-17
   43.79114        1.0339998E-17
   43.91799        1.0340002E-17
   44.04483        1.0340007E-17
   44.17167        1.0340016E-17
   44.29852        1.0340025E-17
   44.42536        1.0340036E-17
   44.55220        1.0340048E-17
   44.67905        1.0340060E-17
   44.80589        1.0340074E-17
   44.93274        1.0340088E-17
   45.05958        1.0340101E-17
   45.18642        1.0340116E-17
   45.31327        1.0340131E-17
   45.44011        1.0340146E-17
   45.56696        1.0340160E-17
   45.69380        1.0340176E-17
   45.82064        1.0340192E-17
   45.94748        1.0340207E-17
   46.07433        1.0340222E-17
   46.20117        1.0340236E-17
   46.32801        1.0340248E-17
   46.45486        1.0340261E-17
   46.58170        1.0340272E-17
   46.70855        1.0340281E-17
   46.83539        1.0340290E-17
   46.96223        1.0340295E-17
   47.08908        1.0340299E-17
   47.21592        1.0340302E-17
   47.34277        1.0340301E-17
   47.46961        1.0340299E-17
   47.59645        1.0340294E-17
   47.72330        1.0340289E-17
   47.85014        1.0340282E-17
   47.97698        1.0340275E-17
   48.10383        1.0340267E-17
   48.23067        1.0340261E-17
   48.35751        1.0340255E-17
   48.48436        1.0340250E-17
   48.61120        1.0340247E-17
   48.73804        1.0340247E-17
   48.86489        1.0340249E-17
   48.99173        1.0340252E-17
   49.11858        1.0340257E-17
   49.24542        1.0340264E-17
   49.37226        1.0340272E-17
   49.49911        1.0340280E-17
   49.62595        1.0340289E-17
   49.75279        1.0340297E-17
   49.87964        1.0340304E-17
   50.00648        1.0340310E-17
   50.13332        1.0340314E-17
   50.26017        1.0340316E-17
   50.38701        1.0340316E-17
   50.51385        1.0340312E-17
   50.64070        1.0340306E-17
   50.76754        1.0340296E-17
   50.89439        1.0340283E-17
   51.02123        1.0340267E-17
   51.14808        1.0340247E-17
   51.27492        1.0340226E-17
   51.40176        1.0340203E-17
   51.52861        1.0340178E-17
   51.65545        1.0340151E-17
   51.78229        1.0340125E-17
   51.90914        1.0340098E-17
   52.03598        1.0340072E-17
   52.16282        1.0340047E-17
   52.28967        1.0340024E-17
   52.41651        1.0340003E-17
   52.54335        1.0339982E-17
   52.67020        1.0339964E-17
   52.79704        1.0339945E-17
   52.92389        1.0339928E-17
   53.05073        1.0339912E-17
   53.17757        1.0339897E-17
   53.30442        1.0339882E-17
   53.43126        1.0339868E-17
   53.55810        1.0339857E-17
   53.68495        1.0339847E-17
   53.81179        1.0339840E-17
   53.93863        1.0339835E-17
   54.06548        1.0339831E-17
   54.19232        1.0339830E-17
   54.31916        1.0339830E-17
   54.44601        1.0339831E-17
   54.57285        1.0339832E-17
   54.69970        1.0339833E-17
   54.82654        1.0339834E-17
   54.95338        1.0339833E-17
   55.08023        1.0339831E-17
   55.20707        1.0339828E-17
   55.33392        1.0339825E-17
   55.46076        1.0339821E-17
   55.58760        1.0339818E-17
   55.71444        1.0339816E-17
   55.84129        1.0339813E-17
   55.96813        1.0339811E-17
   56.09497        1.0339809E-17
   56.22182        1.0339806E-17
   56.34866        1.0339801E-17
   56.47551        1.0339793E-17
   56.60235        1.0339783E-17
   56.72919        1.0339771E-17
   56.85604        1.0339756E-17
   56.98288        1.0339739E-17
   57.10973        1.0339720E-17
   57.23657        1.0339702E-17
   57.36341        1.0339684E-17
   57.49026        1.0339667E-17
   57.61710        1.0339653E-17
   57.74394        1.0339643E-17
   57.87079        1.0339634E-17
   57.99763        1.0339629E-17
   58.12447        1.0339626E-17
   58.25132        1.0339625E-17
   58.37816        1.0339626E-17
   58.50500        1.0339628E-17
   58.63185        1.0339630E-17
   58.75869        1.0339631E-17
   58.88554        1.0339631E-17
   59.01238        1.0339630E-17
   59.13923        1.0339627E-17
   59.26607        1.0339622E-17
   59.39291        1.0339615E-17
   59.51975        1.0339606E-17
   59.64660        1.0339596E-17
   59.77344        1.0339584E-17
   59.90028        1.0339571E-17
   60.02713        1.0339557E-17
   60.15397        1.0339543E-17
   60.28082        1.0339529E-17
   60.40766        1.0339517E-17
   60.53450        1.0339506E-17
   60.66135        1.0339497E-17
   60.78819        1.0339490E-17
   60.91504        1.0339486E-17
   61.04188        1.0339484E-17
   61.16872        1.0339485E-17
   61.29557        1.0339486E-17
   61.42241        1.0339490E-17
   61.54925        1.0339493E-17
   61.67610        1.0339496E-17
   61.80294        1.0339500E-17
   61.92978        1.0339500E-17
   62.05663        1.0339500E-17
   62.18347        1.0339496E-17
   62.31031        1.0339490E-17
   62.43716        1.0339483E-17
   62.56400        1.0339471E-17
   62.69085        1.0339458E-17
   62.81769        1.0339443E-17
   62.94453        1.0339425E-17
   63.07138        1.0339407E-17
   63.19822        1.0339389E-17
   63.32506        1.0339371E-17
   63.45191        1.0339355E-17
   63.57875        1.0339340E-17
   63.70559        1.0339327E-17
   63.83244        1.0339318E-17
   63.95928        1.0339310E-17
   64.08613        1.0339306E-17
   64.21297        1.0339304E-17
   64.33981        1.0339304E-17
   64.46666        1.0339304E-17
   64.59350        1.0339305E-17
   64.72034        1.0339306E-17
   64.84719        1.0339306E-17
   64.97403        1.0339304E-17
   65.10088        1.0339300E-17
   65.22771        1.0339296E-17
   65.35456        1.0339291E-17
   65.48141        1.0339286E-17
   65.60825        1.0339283E-17
   65.73509        1.0339282E-17
   65.86194        1.0339284E-17
   65.98878        1.0339289E-17
   66.11562        1.0339296E-17
   66.24247        1.0339305E-17
   66.36931        1.0339316E-17
   66.49615        1.0339326E-17
   66.62300        1.0339334E-17
   66.74984        1.0339339E-17
   66.87669        1.0339341E-17
   67.00353        1.0339338E-17
   67.13037        1.0339332E-17
   67.25722        1.0339325E-17
   67.38406        1.0339316E-17
   67.51090        1.0339308E-17
   67.63775        1.0339302E-17
   67.76459        1.0339299E-17
   67.89143        1.0339300E-17
   68.01828        1.0339305E-17
   68.14512        1.0339313E-17
   68.27197        1.0339324E-17
   68.39881        1.0339337E-17
   68.52565        1.0339351E-17
   68.65250        1.0339363E-17
   68.77934        1.0339375E-17
   68.90618        1.0339385E-17
   69.03303        1.0339396E-17
   69.15987        1.0339406E-17
   69.28671        1.0339418E-17
   69.41356        1.0339430E-17
   69.54041        1.0339446E-17
   69.66724        1.0339462E-17
   69.79409        1.0339481E-17
   69.92093        1.0339502E-17
   70.04778        1.0339523E-17
   70.17462        1.0339543E-17
   70.30146        1.0339562E-17
   70.42831        1.0339579E-17
   70.55515        1.0339595E-17
   70.68199        1.0339610E-17
   70.80884        1.0339624E-17
   70.93568        1.0339640E-17
   71.06252        1.0339657E-17
   71.18937        1.0339675E-17
   71.31622        1.0339696E-17
   71.44305        1.0339717E-17
   71.56990        1.0339739E-17
   71.69675        1.0339758E-17
   71.82359        1.0339773E-17
   71.95043        1.0339784E-17
   72.07728        1.0339789E-17
   72.20412        1.0339787E-17
   72.33096        1.0339782E-17
   72.45780        1.0339773E-17
   72.58465        1.0339763E-17
   72.71149        1.0339754E-17
   72.83833        1.0339747E-17
   72.96518        1.0339746E-17
   73.09203        1.0339751E-17
   73.21886        1.0339763E-17
   73.34571        1.0339778E-17
   73.47256        1.0339799E-17
   73.59940        1.0339820E-17
   73.72624        1.0339840E-17
   73.85309        1.0339859E-17
   73.97993        1.0339873E-17
   74.10677        1.0339883E-17
   74.23362        1.0339889E-17
   74.36046        1.0339892E-17
   74.48730        1.0339893E-17
   74.61415        1.0339895E-17
   74.74099        1.0339897E-17
   74.86784        1.0339902E-17
   74.99467        1.0339909E-17
   75.12152        1.0339918E-17
   75.24837        1.0339927E-17
   75.37521        1.0339935E-17
   75.50205        1.0339940E-17
   75.62890        1.0339943E-17
   75.75574        1.0339942E-17
   75.88258        1.0339939E-17
   76.00943        1.0339934E-17
   76.13627        1.0339929E-17
   76.26311        1.0339926E-17
   76.38996        1.0339924E-17
   76.51680        1.0339926E-17
   76.64365        1.0339932E-17
   76.77049        1.0339941E-17
   76.89733        1.0339954E-17
   77.02418        1.0339966E-17
   77.15102        1.0339978E-17
   77.27786        1.0339987E-17
   77.40471        1.0339992E-17
   77.53155        1.0339993E-17
   77.65839        1.0339988E-17
   77.78524        1.0339982E-17
   77.91208        1.0339974E-17
   78.03893        1.0339966E-17
   78.16577        1.0339961E-17
   78.29261        1.0339960E-17
   78.41946        1.0339964E-17
   78.54630        1.0339974E-17
   78.67314        1.0339989E-17
   78.79999        1.0340009E-17
   78.92683        1.0340031E-17
   79.05367        1.0340055E-17
   79.18052        1.0340080E-17
   79.30737        1.0340105E-17
   79.43420        1.0340129E-17
   79.56105        1.0340154E-17
   79.68790        1.0340178E-17
   79.81474        1.0340204E-17
   79.94158        1.0340230E-17
   80.06842        1.0340258E-17
   80.19527        1.0340287E-17
   80.32211        1.0340316E-17
   80.44895        1.0340344E-17
   80.57580        1.0340371E-17
   80.70264        1.0340394E-17
   80.82948        1.0340413E-17
   80.95633        1.0340429E-17
   81.08318        1.0340439E-17
   81.21001        1.0340447E-17
   81.33686        1.0340451E-17
   81.46371        1.0340454E-17
   81.59055        1.0340457E-17
   81.71739        1.0340460E-17
   81.84424        1.0340462E-17
   81.97108        1.0340467E-17
   82.09792        1.0340471E-17
   82.22476        1.0340475E-17
   82.35161        1.0340478E-17
   82.47845        1.0340479E-17
   82.60529        1.0340480E-17
   82.73214        1.0340477E-17
   82.85899        1.0340473E-17
   82.98582        1.0340467E-17
   83.11267        1.0340459E-17
   83.23952        1.0340450E-17
   83.36636        1.0340442E-17
   83.49320        1.0340433E-17
   83.62005        1.0340426E-17
   83.74689        1.0340419E-17
   83.87373        1.0340414E-17
   84.00058        1.0340408E-17
   84.12742        1.0340402E-17
   84.25426        1.0340396E-17
   84.38111        1.0340390E-17
   84.50795        1.0340381E-17
   84.63480        1.0340373E-17
   84.76163        1.0340364E-17
   84.88848        1.0340356E-17
   85.01533        1.0340347E-17
   85.14217        1.0340340E-17
   85.26901        1.0340334E-17
   85.39586        1.0340330E-17
   85.52270        1.0340326E-17
   85.64954        1.0340322E-17
   85.77639        1.0340318E-17
   85.90323        1.0340311E-17
   86.03008        1.0340304E-17
   86.15692        1.0340294E-17
   86.28376        1.0340280E-17
   86.41061        1.0340266E-17
   86.53745        1.0340250E-17
   86.66429        1.0340232E-17
   86.79114        1.0340215E-17
   86.91798        1.0340198E-17
   87.04482        1.0340180E-17
   87.17167        1.0340163E-17
   87.29851        1.0340146E-17
   87.42535        1.0340129E-17
   87.55220        1.0340113E-17
   87.67904        1.0340094E-17
   87.80589        1.0340077E-17
   87.93273        1.0340058E-17
   88.05957        1.0340040E-17
   88.18642        1.0340022E-17
   88.31326        1.0340006E-17
   88.44010        1.0339991E-17
   88.56695        1.0339979E-17
   88.69379        1.0339966E-17
   88.82063        1.0339956E-17
   88.94748        1.0339948E-17
   89.07433        1.0339939E-17
   89.20116        1.0339930E-17
   89.32801        1.0339921E-17
   89.45486        1.0339911E-17
   89.58170        1.0339900E-17
   89.70854        1.0339890E-17
   89.83538        1.0339881E-17
   89.96223        1.0339874E-17
   90.08907        1.0339869E-17
   90.21591        1.0339868E-17
   90.34276        1.0339869E-17
   90.46960        1.0339873E-17
   90.59644        1.0339881E-17
   90.72329        1.0339890E-17
   90.85014        1.0339900E-17
   90.97697        1.0339912E-17
   91.10382        1.0339923E-17
   91.23067        1.0339936E-17
   91.35751        1.0339950E-17
   91.48435        1.0339967E-17
   91.61120        1.0339987E-17
   91.73804        1.0340012E-17
   91.86488        1.0340042E-17
   91.99173        1.0340079E-17
   92.11857        1.0340122E-17
   92.24541        1.0340168E-17
   92.37225        1.0340218E-17
   92.49910        1.0340267E-17
   92.62595        1.0340316E-17
   92.75278        1.0340360E-17
   92.87963        1.0340396E-17
   93.00648        1.0340424E-17
   93.13332        1.0340441E-17
   93.26016        1.0340444E-17
   93.38701        1.0340435E-17
   93.51385        1.0340412E-17
   93.64069        1.0340376E-17
   93.76754        1.0340324E-17
   93.89438        1.0340259E-17
   94.02122        1.0340180E-17
   94.14807        1.0340089E-17
   94.27491        1.0339985E-17
   94.40176        1.0339869E-17
   94.52859        1.0339745E-17
   94.65544        1.0339617E-17
   94.78229        1.0339486E-17
   94.90913        1.0339361E-17
   95.03597        1.0339247E-17
   95.16282        1.0339153E-17
   95.28966        1.0339084E-17
   95.41650        1.0339049E-17
   95.54335        1.0339053E-17
   95.67019        1.0339101E-17
   95.79704        1.0339197E-17
   95.92388        1.0339342E-17
   96.05072        1.0339536E-17
   96.17757        1.0339777E-17
   96.30441        1.0340058E-17
   96.43125        1.0340376E-17
   96.55810        1.0340718E-17
   96.68494        1.0341076E-17
   96.81178        1.0341438E-17
   96.93863        1.0341789E-17
   97.06547        1.0342114E-17
   97.19231        1.0342395E-17
   97.31916        1.0342613E-17
   97.44600        1.0342752E-17
   97.57285        1.0342793E-17
   97.69969        1.0342720E-17
   97.82653        1.0342518E-17
   97.95338        1.0342178E-17
   98.08022        1.0341695E-17
   98.20706        1.0341068E-17
   98.33391        1.0340304E-17
   98.46075        1.0339418E-17
   98.58759        1.0338428E-17
   98.71444        1.0337366E-17
   98.84129        1.0336266E-17
   98.96812        1.0335168E-17
   99.09497        1.0334119E-17
   99.22182        1.0333168E-17
   99.34866        1.0332367E-17
   99.47550        1.0331768E-17
   99.60234        1.0331421E-17
   99.72919        1.0331371E-17
   99.85603        1.0331659E-17
   99.98287        1.0332315E-17
   100.1097        1.0333360E-17
   100.2366        1.0334802E-17
   100.3634        1.0336631E-17
   100.4902        1.0338821E-17
   100.6171        1.0341329E-17
   100.7439        1.0344091E-17
   100.8708        1.0347024E-17
   100.9976        1.0350027E-17
   101.1245        1.0352981E-17
   101.2513        1.0355756E-17
   101.3782        1.0358213E-17
   101.5050        1.0360206E-17
   101.6318        1.0361595E-17
   101.7587        1.0362245E-17
   101.8855        1.0362038E-17
   102.0124        1.0360875E-17
   102.1392        1.0358689E-17
   102.2661        1.0355447E-17
   102.3929        1.0351155E-17
   102.5197        1.0345865E-17
   102.6466        1.0339676E-17
   102.7734        1.0332737E-17
   102.9003        1.0325246E-17
   103.0271        1.0317448E-17
   103.1540        1.0309631E-17
   103.2808        1.0302117E-17
   103.4077        1.0295256E-17
   103.5345        1.0289410E-17
   103.6613        1.0284943E-17
   103.7882        1.0282204E-17
   103.9150        1.0281513E-17
   104.0419        1.0283136E-17
   104.1687        1.0287280E-17
   104.2956        1.0294063E-17
   104.4224        1.0303511E-17
   104.5492        1.0315540E-17
   104.6761        1.0329948E-17
   104.8029        1.0346409E-17
   104.9298        1.0364475E-17
   105.0566        1.0383585E-17
   105.1835        1.0403065E-17
   105.3103        1.0422155E-17
   105.4371        1.0440022E-17
   105.5640        1.0455793E-17
   105.6908        1.0468584E-17
   105.8177        1.0477535E-17
   105.9445        1.0481848E-17
   106.0714        1.0480830E-17
   106.1982        1.0473928E-17
   106.3251        1.0460769E-17
   106.4519        1.0441199E-17
   106.5787        1.0415307E-17
   106.7056        1.0383455E-17
   106.8324        1.0346286E-17
   106.9593        1.0304731E-17
   107.0861        1.0260002E-17
   107.2130        1.0213574E-17
   107.3398        1.0167147E-17
   107.4667        1.0122606E-17
   107.5935        1.0081962E-17
   107.7203        1.0047280E-17
   107.8472        1.0020603E-17
   107.9740        1.0003869E-17