  -7.200000        3.6334544E-19
  -7.073156        3.6334720E-19
  -6.946313        3.6335033E-19
  -6.819469        3.6335454E-19
  -6.692626        3.6336080E-19
  -6.565782        3.6336816E-19
  -6.438938        3.6337742E-19
  -6.312095        3.6338807E-19
  -6.185251        3.6339999E-19
  -6.058407        3.6341340E-19
  -5.931563        3.6342736E-19
  -5.804720        3.6344150E-19
  -5.677876        3.6345523E-19
  -5.551033        3.6346774E-19
  -5.424189        3.6347875E-19
  -5.297346        3.6348725E-19
  -5.170502        3.6349315E-19
  -5.043658        3.6349568E-19
  -4.916814        3.6349493E-19
  -4.789971        3.6349131E-19
  -4.663127        3.6348542E-19
  -4.536283        3.6347712E-19
  -4.409440        3.6346802E-19
  -4.282596        3.6345926E-19
  -4.155753        3.6345158E-19
  -4.028909        3.6344670E-19
  -3.902065        3.6344610E-19
  -3.775222        3.6345037E-19
  -3.648378        3.6346112E-19
  -3.521534        3.6347932E-19
  -3.394691        3.6350514E-19
  -3.267847        3.6353926E-19
  -3.141004        3.6358116E-19
  -3.014160        3.6363056E-19
  -2.887316        3.6368702E-19
  -2.760473        3.6374962E-19
  -2.633629        3.6381753E-19
  -2.506785        3.6388924E-19
  -2.379942        3.6396384E-19
  -2.253098        3.6403989E-19
  -2.126254        3.6411596E-19
  -1.999411        3.6419056E-19
  -1.872567        3.6426222E-19
  -1.745723        3.6432971E-19
  -1.618880        3.6439115E-19
  -1.492036        3.6444539E-19
  -1.365193        3.6449086E-19
  -1.238349        3.6452549E-19
  -1.111505        3.6454935E-19
 -0.9846617        3.6456067E-19
 -0.8578180        3.6455879E-19
 -0.7309744        3.6454294E-19
 -0.6041307        3.6451316E-19
 -0.4772871        3.6447064E-19
 -0.3504435        3.6441607E-19
 -0.2235998        3.6435078E-19
 -9.6756198E-02    3.6427700E-19
  3.0087441E-02    3.6419646E-19
  0.1569311        3.6411296E-19
  0.2837747        3.6402999E-19
  0.4106184        3.6394957E-19
  0.5374620        3.6387582E-19
  0.6643056        3.6381179E-19
  0.7911493        3.6376022E-19
  0.9179929        3.6372339E-19
   1.044837        3.6370320E-19
   1.171680        3.6370074E-19
   1.298524        3.6371563E-19
   1.425367        3.6374722E-19
   1.552211        3.6379486E-19
   1.679055        3.6385612E-19
   1.805898        3.6392855E-19
   1.932742        3.6400928E-19
   2.059586        3.6409489E-19
   2.186429        3.6418141E-19
   2.313273        3.6426555E-19
   2.440117        3.6434442E-19
   2.566960        3.6441525E-19
   2.693804        3.6447400E-19
   2.820647        3.6451999E-19
   2.947491        3.6455039E-19
   3.074335        3.6456572E-19
   3.201178        3.6456442E-19
   3.328022        3.6454710E-19
   3.454866        3.6451484E-19
   3.581709        3.6446860E-19
   3.708553        3.6441013E-19
   3.835397        3.6434212E-19
   3.962240        3.6426648E-19
   4.089084        3.6418630E-19
   4.215928        3.6410399E-19
   4.342771        3.6402205E-19
   4.469615        3.6394274E-19
   4.596458        3.6386827E-19
   4.723302        3.6380060E-19
   4.850146        3.6374096E-19
   4.976989        3.6369123E-19
   5.103833        3.6365155E-19
   5.230677        3.6362195E-19
   5.357520        3.6360290E-19
   5.484364        3.6359362E-19
   5.611207        3.6359391E-19
   5.738051        3.6360321E-19
   5.864895        3.6361999E-19
   5.991738        3.6364305E-19
   6.118582        3.6367115E-19
   6.245426        3.6370351E-19
   6.372270        3.6373830E-19
   6.499113        3.6377436E-19
   6.625957        3.6381022E-19
   6.752800        3.6384568E-19
   6.879644        3.6387890E-19
   7.006487        3.6390914E-19
   7.133331        3.6393587E-19
   7.260175        3.6395851E-19
   7.387019        3.6397684E-19
   7.513862        3.6399028E-19
   7.640706        3.6400008E-19
   7.767550        3.6400610E-19
   7.894393        3.6400871E-19
   8.021236        3.6400962E-19
   8.148081        3.6401001E-19
   8.274924        3.6401060E-19
   8.401768        3.6401290E-19
   8.528611        3.6401763E-19
   8.655455        3.6402603E-19
   8.782298        3.6403865E-19
   8.909142        3.6405553E-19
   9.035986        3.6407729E-19
   9.162829        3.6410301E-19
   9.289673        3.6413207E-19
   9.416516        3.6416391E-19
   9.543361        3.6419677E-19
   9.670204        3.6422980E-19
   9.797048        3.6426198E-19
   9.923891        3.6429182E-19
   10.05073        3.6431896E-19
   10.17758        3.6434240E-19
   10.30442        3.6436107E-19
   10.43127        3.6437500E-19
   10.55811        3.6438459E-19
   10.68495        3.6438916E-19
   10.81180        3.6438929E-19
   10.93864        3.6438500E-19
   11.06548        3.6437681E-19
   11.19233        3.6436450E-19
   11.31917        3.6434905E-19
   11.44602        3.6432997E-19
   11.57286        3.6430823E-19
   11.69970        3.6428354E-19
   11.82655        3.6425635E-19
   11.95339        3.6422724E-19
   12.08023        3.6419664E-19
   12.20708        3.6416502E-19
   12.33392        3.6413305E-19
   12.46076        3.6410226E-19
   12.58761        3.6407326E-19
   12.71445        3.6404741E-19
   12.84130        3.6402619E-19
   12.96814        3.6400990E-19
   13.09498        3.6399951E-19
   13.22183        3.6399612E-19
   13.34867        3.6399959E-19
   13.47551        3.6401055E-19
   13.60236        3.6402880E-19
   13.72920        3.6405227E-19
   13.85604        3.6408101E-19
   13.98289        3.6411283E-19
   14.10973        3.6414652E-19
   14.23658        3.6417981E-19
   14.36342        3.6421088E-19
   14.49026        3.6423717E-19
   14.61711        3.6425811E-19
   14.74395        3.6427093E-19
   14.87079        3.6427421E-19
   14.99764        3.6426718E-19
   15.12448        3.6424924E-19
   15.25132        3.6421990E-19
   15.37817        3.6417999E-19
   15.50501        3.6413039E-19
   15.63186        3.6407225E-19
   15.75870        3.6400758E-19
   15.88554        3.6393825E-19
   16.01239        3.6386659E-19
   16.13923        3.6379471E-19
   16.26607        3.6372463E-19
   16.39292        3.6365931E-19
   16.51976        3.6359967E-19
   16.64660        3.6354828E-19
   16.77345        3.6350651E-19
   16.90029        3.6347485E-19
   17.02714        3.6345365E-19
   17.15398        3.6344302E-19
   17.28082        3.6344295E-19
   17.40767        3.6345254E-19
   17.53451        3.6347130E-19
   17.66135        3.6349682E-19
   17.78820        3.6352799E-19
   17.91504        3.6356338E-19
   18.04188        3.6360040E-19
   18.16873        3.6363739E-19
   18.29557        3.6367252E-19
   18.42241        3.6370462E-19
   18.54926        3.6373176E-19
   18.67610        3.6375223E-19
   18.80295        3.6376490E-19
   18.92979        3.6376961E-19
   19.05663        3.6376493E-19
   19.18348        3.6375149E-19
   19.31032        3.6372840E-19
   19.43716        3.6369710E-19
   19.56401        3.6365791E-19
   19.69085        3.6361223E-19
   19.81770        3.6356129E-19
   19.94454        3.6350659E-19
   20.07138        3.6344928E-19
   20.19823        3.6339156E-19
   20.32507        3.6333536E-19
   20.45191        3.6328240E-19
   20.57876        3.6323401E-19
   20.70560        3.6319092E-19
   20.83245        3.6315480E-19
   20.95929        3.6312598E-19
   21.08613        3.6310528E-19
   21.21297        3.6309230E-19
   21.33982        3.6308723E-19
   21.46666        3.6308984E-19
   21.59351        3.6309925E-19
   21.72035        3.6311412E-19
   21.84719        3.6313405E-19
   21.97404        3.6315762E-19
   22.10088        3.6318324E-19
   22.22772        3.6320994E-19
   22.35457        3.6323571E-19
   22.48141        3.6325975E-19
   22.60826        3.6328056E-19
   22.73510        3.6329692E-19
   22.86194        3.6330757E-19
   22.98879        3.6331184E-19
   23.11563        3.6330845E-19
   23.24247        3.6329760E-19
   23.36932        3.6327870E-19
   23.49616        3.6325166E-19
   23.62300        3.6321707E-19
   23.74985        3.6317618E-19
   23.87669        3.6312945E-19
   24.00353        3.6307899E-19
   24.13038        3.6302700E-19
   24.25722        3.6297479E-19
   24.38407        3.6292467E-19
   24.51091        3.6287853E-19
   24.63775        3.6283807E-19
   24.76460        3.6280467E-19
   24.89144        3.6278025E-19
   25.01828        3.6276536E-19
   25.14513        3.6276091E-19
   25.27197        3.6276611E-19
   25.39882        3.6278146E-19
   25.52566        3.6280522E-19
   25.65250        3.6283727E-19
   25.77935        3.6287576E-19
   25.90619        3.6291952E-19
   26.03303        3.6296696E-19
   26.15988        3.6301646E-19
   26.28672        3.6306611E-19
   26.41356        3.6311435E-19
   26.54041        3.6315961E-19
   26.66725        3.6320009E-19
   26.79410        3.6323463E-19
   26.92094        3.6326156E-19
   27.04778        3.6328074E-19
   27.17463        3.6329059E-19
   27.30147        3.6329126E-19
   27.42831        3.6328211E-19
   27.55516        3.6326345E-19
   27.68200        3.6323631E-19
   27.80884        3.6320185E-19
   27.93569        3.6316111E-19
   28.06253        3.6311489E-19
   28.18937        3.6306482E-19
   28.31622        3.6301297E-19
   28.44306        3.6296067E-19
   28.56991        3.6290913E-19
   28.69675        3.6286035E-19
   28.82359        3.6281434E-19
   28.95044        3.6277272E-19
   29.07728        3.6273594E-19
   29.20412        3.6270399E-19
   29.33097        3.6267775E-19
   29.45781        3.6265676E-19
   29.58466        3.6264056E-19
   29.71150        3.6262841E-19
   29.83834        3.6262029E-19
   29.96519        3.6261551E-19
   30.09203        3.6261393E-19
   30.21887        3.6261442E-19
   30.34572        3.6261683E-19
   30.47256        3.6262034E-19
   30.59941        3.6262406E-19
   30.72625        3.6262797E-19
   30.85309        3.6263019E-19
   30.97993        3.6263063E-19
   31.10678        3.6262838E-19
   31.23362        3.6262298E-19
   31.36047        3.6261406E-19
   31.48731        3.6260134E-19
   31.61415        3.6258472E-19
   31.74100        3.6256381E-19
   31.86784        3.6253933E-19
   31.99468        3.6251172E-19
   32.12153        3.6248231E-19
   32.24837        3.6245142E-19
   32.37521        3.6242027E-19
   32.50206        3.6238951E-19
   32.62890        3.6236045E-19
   32.75574        3.6233419E-19
   32.88259        3.6231123E-19
   33.00943        3.6229195E-19
   33.13628        3.6227717E-19
   33.26312        3.6226747E-19
   33.38997        3.6226282E-19
   33.51681        3.6226243E-19
   33.64365        3.6226721E-19
   33.77050        3.6227660E-19
   33.89734        3.6229022E-19
   34.02418        3.6230806E-19
   34.15103        3.6232943E-19
   34.27787        3.6235324E-19
   34.40471        3.6237966E-19
   34.53156        3.6240721E-19
   34.65840        3.6243578E-19
   34.78524        3.6246424E-19
   34.91209        3.6249138E-19
   35.03893        3.6251563E-19
   35.16578        3.6253592E-19
   35.29262        3.6255107E-19
   35.41946        3.6256068E-19
   35.54631        3.6256257E-19
   35.67315        3.6255750E-19
   35.80000        3.6254453E-19
   35.92684        3.6252405E-19
   36.05368        3.6249655E-19
   36.18052        3.6246331E-19
   36.30737        3.6242526E-19
   36.43421        3.6238462E-19
   36.56105        3.6234272E-19
   36.68790        3.6230206E-19
   36.81474        3.6226341E-19
   36.94159        3.6222942E-19
   37.06843        3.6220143E-19
   37.19527        3.6217940E-19
   37.32212        3.6216495E-19
   37.44896        3.6215790E-19
   37.57581        3.6215772E-19
   37.70265        3.6216317E-19
   37.82949        3.6217390E-19
   37.95634        3.6218863E-19
   38.08318        3.6220616E-19
   38.21002        3.6222505E-19
   38.33687        3.6224361E-19
   38.46371        3.6226062E-19
   38.59055        3.6227559E-19
   38.71740        3.6228668E-19
   38.84424        3.6229479E-19
   38.97108        3.6229792E-19
   39.09793        3.6229635E-19
   39.22477        3.6229043E-19
   39.35162        3.6227934E-19
   39.47846        3.6226300E-19
   39.60530        3.6224180E-19
   39.73215        3.6221629E-19
   39.85899        3.6218605E-19
   39.98583        3.6215211E-19
   40.11268        3.6211468E-19
   40.23952        3.6207474E-19
   40.36636        3.6203333E-19
   40.49321        3.6199075E-19
   40.62005        3.6194903E-19
   40.74689        3.6190990E-19
   40.87374        3.6187342E-19
   41.00058        3.6184212E-19
   41.12743        3.6181637E-19
   41.25427        3.6179735E-19
   41.38111        3.6178559E-19
   41.50796        3.6178186E-19
   41.63480        3.6178473E-19
   41.76165        3.6179458E-19
   41.88849        3.6181027E-19
   42.01533        3.6183077E-19
   42.14218        3.6185417E-19
   42.26902        3.6187903E-19
   42.39586        3.6190403E-19
   42.52271        3.6192737E-19
   42.64955        3.6194725E-19
   42.77639        3.6196255E-19
   42.90324        3.6197217E-19
   43.03008        3.6197480E-19
   43.15693        3.6197111E-19
   43.28377        3.6195992E-19
   43.41061        3.6194203E-19
   43.53746        3.6191788E-19
   43.66430        3.6188847E-19
   43.79114        3.6185424E-19
   43.91799        3.6181697E-19
   44.04483        3.6177817E-19
   44.17167        3.6173955E-19
   44.29852        3.6170204E-19
   44.42536        3.6166758E-19
   44.55220        3.6163698E-19
   44.67905        3.6161167E-19
   44.80589        3.6159260E-19
   44.93274        3.6158083E-19
   45.05958        3.6157703E-19
   45.18642        3.6158107E-19
   45.31327        3.6159332E-19
   45.44011        3.6161325E-19
   45.56696        3.6164042E-19
   45.69380        3.6167446E-19
   45.82064        3.6171429E-19
   45.94748        3.6175865E-19
   46.07433        3.6180650E-19
   46.20117        3.6185616E-19
   46.32801        3.6190654E-19
   46.45486        3.6195609E-19
   46.58170        3.6200308E-19
   46.70855        3.6204623E-19
   46.83539        3.6208433E-19
   46.96223        3.6211576E-19
   47.08908        3.6213998E-19
   47.21592        3.6215603E-19
   47.34277        3.6216361E-19
   47.46961        3.6216276E-19
   47.59645        3.6215314E-19
   47.72330        3.6213528E-19
   47.85014        3.6210935E-19
   47.97698        3.6207642E-19
   48.10383        3.6203798E-19
   48.23067        3.6199489E-19
   48.35751        3.6194821E-19
   48.48436        3.6189940E-19
   48.61120        3.6184967E-19
   48.73804        3.6180133E-19
   48.86489        3.6175480E-19
   48.99173        3.6171109E-19
   49.11858        3.6167200E-19
   49.24542        3.6163819E-19
   49.37226        3.6161041E-19
   49.49911        3.6158939E-19
   49.62595        3.6157551E-19
   49.75279        3.6156938E-19
   49.87964        3.6156990E-19
   50.00648        3.6157778E-19
   50.13332        3.6159213E-19
   50.26017        3.6161165E-19
   50.38701        3.6163587E-19
   50.51385        3.6166350E-19
   50.64070        3.6169341E-19
   50.76754        3.6172453E-19
   50.89439        3.6175449E-19
   51.02123        3.6178277E-19
   51.14808        3.6180751E-19
   51.27492        3.6182816E-19
   51.40176        3.6184331E-19
   51.52861        3.6185300E-19
   51.65545        3.6185647E-19
   51.78229        3.6185373E-19
   51.90914        3.6184491E-19
   52.03598        3.6183057E-19
   52.16282        3.6181172E-19
   52.28967        3.6178890E-19
   52.41651        3.6176333E-19
   52.54335        3.6173565E-19
   52.67020        3.6170664E-19
   52.79704        3.6167798E-19
   52.92389        3.6164998E-19
   53.05073        3.6162349E-19
   53.17757        3.6159893E-19
   53.30442        3.6157652E-19
   53.43126        3.6155682E-19
   53.55810        3.6153953E-19
   53.68495        3.6152500E-19
   53.81179        3.6151396E-19
   53.93863        3.6150597E-19
   54.06548        3.6150055E-19
   54.19232        3.6149825E-19
   54.31916        3.6149931E-19
   54.44601        3.6150331E-19
   54.57285        3.6150985E-19
   54.69970        3.6151877E-19
   54.82654        3.6152981E-19
   54.95338        3.6154234E-19
   55.08023        3.6155692E-19
   55.20707        3.6157238E-19
   55.33392        3.6158859E-19
   55.46076        3.6160516E-19
   55.58760        3.6162108E-19
   55.71444        3.6163610E-19
   55.84129        3.6164949E-19
   55.96813        3.6166084E-19
   56.09497        3.6167020E-19
   56.22182        3.6167663E-19
   56.34866        3.6168066E-19
   56.47551        3.6168157E-19
   56.60235        3.6167955E-19
   56.72919        3.6167464E-19
   56.85604        3.6166694E-19
   56.98288        3.6165650E-19
   57.10973        3.6164259E-19
   57.23657        3.6162597E-19
   57.36341        3.6160614E-19
   57.49026        3.6158267E-19
   57.61710        3.6155548E-19
   57.74394        3.6152443E-19
   57.87079        3.6148909E-19
   57.99763        3.6145004E-19
   58.12447        3.6140609E-19
   58.25132        3.6135698E-19
   58.37816        3.6130285E-19
   58.50500        3.6124327E-19
   58.63185        3.6117890E-19
   58.75869        3.6110924E-19
   58.88554        3.6103446E-19
   59.01238        3.6095437E-19
   59.13923        3.6086951E-19
   59.26607        3.6077994E-19
   59.39291        3.6068670E-19
   59.51975        3.6058899E-19
   59.64660        3.6048854E-19
   59.77344        3.6038543E-19
   59.90028        3.6028017E-19
   60.02713        3.6017326E-19
   60.15397        3.6006554E-19
   60.28082        3.5995723E-19
   60.40766        3.5984923E-19
   60.53450        3.5974204E-19
   60.66135        3.5963554E-19
   60.78819        3.5952912E-19
   60.91504        3.5942277E-19
   61.04188        3.5931612E-19
   61.16872        3.5920760E-19
   61.29557        3.5909764E-19
   61.42241        3.5898512E-19
   61.54925        3.5886861E-19
   61.67610        3.5874756E-19
   61.80294        3.5862098E-19
   61.92978        3.5848868E-19
   62.05663        3.5835033E-19
   62.18347        3.5820589E-19
   62.31031        3.5805580E-19
   62.43716        3.5790053E-19
   62.56400        3.5774158E-19
   62.69085        3.5757865E-19
   62.81769        3.5741412E-19
   62.94453        3.5724860E-19
   63.07138        3.5708332E-19
   63.19822        3.5691959E-19
   63.32506        3.5675806E-19
   63.45191        3.5659924E-19
   63.57875        3.5644371E-19
   63.70559        3.5629176E-19
   63.83244        3.5614308E-19
   63.95928        3.5599799E-19
   64.08613        3.5585535E-19
   64.21297        3.5571393E-19
   64.33981        3.5557354E-19
   64.46666        3.5543336E-19
   64.59350        3.5529206E-19
   64.72034        3.5514876E-19
   64.84719        3.5500304E-19
   64.97403        3.5485412E-19
   65.10088        3.5470130E-19
   65.22771        3.5454486E-19
   65.35456        3.5438398E-19
   65.48141        3.5421854E-19
   65.60825        3.5404876E-19
   65.73509        3.5387402E-19
   65.86194        3.5369465E-19
   65.98878        3.5351029E-19
   66.11562        3.5332175E-19
   66.24247        3.5312950E-19
   66.36931        3.5293341E-19
   66.49615        3.5273463E-19
   66.62300        3.5253308E-19
   66.74984        3.5232959E-19
   66.87669        3.5212507E-19
   67.00353        3.5192058E-19
   67.13037        3.5171647E-19
   67.25722        3.5151361E-19
   67.38406        3.5131286E-19
   67.51090        3.5111503E-19
   67.63775        3.5091995E-19
   67.76459        3.5072828E-19
   67.89143        3.5054035E-19
   68.01828        3.5035654E-19
   68.14512        3.5017582E-19
   68.27197        3.4999855E-19
   68.39881        3.4982285E-19
   68.52565        3.4964896E-19
   68.65250        3.4947603E-19
   68.77934        3.4930268E-19
   68.90618        3.4912784E-19
   69.03303        3.4895048E-19
   69.15987        3.4876925E-19
   69.28671        3.4858345E-19
   69.41356        3.4839198E-19
   69.54041        3.4819465E-19
   69.66724        3.4799070E-19
   69.79409        3.4778000E-19
   69.92093        3.4756268E-19
   70.04778        3.4733888E-19
   70.17462        3.4710949E-19
   70.30146        3.4687576E-19
   70.42831        3.4663880E-19
   70.55515        3.4639961E-19
   70.68199        3.4615991E-19
   70.80884        3.4592166E-19
   70.93568        3.4568620E-19
   71.06252        3.4545438E-19
   71.18937        3.4522796E-19
   71.31622        3.4500675E-19
   71.44305        3.4479248E-19
   71.56990        3.4458512E-19
   71.69675        3.4438416E-19
   71.82359        3.4418851E-19
   71.95043        3.4399746E-19
   72.07728        3.4380989E-19
   72.20412        3.4362401E-19
   72.33096        3.4343851E-19
   72.45780        3.4325124E-19
   72.58465        3.4306122E-19
   72.71149        3.4286623E-19
   72.83833        3.4266541E-19
   72.96518        3.4245737E-19
   73.09203        3.4224213E-19
   73.21886        3.4201868E-19
   73.34571        3.4178663E-19
   73.47256        3.4154603E-19
   73.59940        3.4129782E-19
   73.72624        3.4104186E-19
   73.85309        3.4077905E-19
   73.97993        3.4051071E-19
   74.10677        3.4023795E-19
   74.23362        3.3996058E-19
   74.36046        3.3968138E-19
   74.48730        3.3940118E-19
   74.61415        3.3912107E-19
   74.74099        3.3884239E-19
   74.86784        3.3856663E-19
   74.99467        3.3829542E-19
   75.12152        3.3802955E-19
   75.24837        3.3777067E-19
   75.37521        3.3751955E-19
   75.50205        3.3727708E-19
   75.62890        3.3704288E-19
   75.75574        3.3681830E-19
   75.88258        3.3660267E-19
   76.00943        3.3639626E-19
   76.13627        3.3619841E-19
   76.26311        3.3600705E-19
   76.38996        3.3582277E-19
   76.51680        3.3564347E-19
   76.64365        3.3546754E-19
   76.77049        3.3529378E-19
   76.89733        3.3512054E-19
   77.02418        3.3494678E-19
   77.15102        3.3477126E-19
   77.27786        3.3459311E-19
   77.40471        3.3441167E-19
   77.53155        3.3422584E-19
   77.65839        3.3403611E-19
   77.78524        3.3384185E-19
   77.91208        3.3364395E-19
   78.03893        3.3344320E-19
   78.16577        3.3323940E-19
   78.29261        3.3303369E-19
   78.41946        3.3282713E-19
   78.54630        3.3262023E-19
   78.67314        3.3241426E-19
   78.79999        3.3221083E-19
   78.92683        3.3201024E-19
   79.05367        3.3181378E-19
   79.18052        3.3162219E-19
   79.30737        3.3143625E-19
   79.43420        3.3125663E-19
   79.56105        3.3108444E-19
   79.68790        3.3092014E-19
   79.81474        3.3076381E-19
   79.94158        3.3061522E-19
   80.06842        3.3047528E-19
   80.19527        3.3034238E-19
   80.32211        3.3021670E-19
   80.44895        3.3009687E-19
   80.57580        3.2998150E-19
   80.70264        3.2986942E-19
   80.82948        3.2975852E-19
   80.95633        3.2964776E-19
   81.08318        3.2953495E-19
   81.21001        3.2941832E-19
   81.33686        3.2929597E-19
   81.46371        3.2916722E-19
   81.59055        3.2903079E-19
   81.71739        3.2888543E-19
   81.84424        3.2873163E-19
   81.97108        3.2856963E-19
   82.09792        3.2839936E-19
   82.22476        3.2822217E-19
   82.35161        3.2803964E-19
   82.47845        3.2785319E-19
   82.60529        3.2766475E-19
   82.73214        3.2747675E-19
   82.85899        3.2729022E-19
   82.98582        3.2710715E-19
   83.11267        3.2692928E-19
   83.23952        3.2675842E-19
   83.36636        3.2659603E-19
   83.49320        3.2644300E-19
   83.62005        3.2630011E-19
   83.74689        3.2616846E-19
   83.87373        3.2604810E-19
   84.00058        3.2593891E-19
   84.12742        3.2584125E-19
   84.25426        3.2575365E-19
   84.38111        3.2567564E-19
   84.50795        3.2560569E-19
   84.63480        3.2554244E-19
   84.76163        3.2548334E-19
   84.88848        3.2542686E-19
   85.01533        3.2537108E-19
   85.14217        3.2531313E-19
   85.26901        3.2525093E-19
   85.39586        3.2518197E-19
   85.52270        3.2510468E-19
   85.64954        3.2501780E-19
   85.77639        3.2491905E-19
   85.90323        3.2480824E-19
   86.03008        3.2468483E-19
   86.15692        3.2454858E-19
   86.28376        3.2440025E-19
   86.41061        3.2424123E-19
   86.53745        3.2407246E-19
   86.66429        3.2389619E-19
   86.79114        3.2371514E-19
   86.91798        3.2353148E-19
   87.04482        3.2334756E-19
   87.17167        3.2316566E-19
   87.29851        3.2298929E-19
   87.42535        3.2282088E-19
   87.55220        3.2266098E-19
   87.67904        3.2251338E-19
   87.80589        3.2237832E-19
   87.93273        3.2225662E-19
   88.05957        3.2214818E-19
   88.18642        3.2205362E-19
   88.31326        3.2197142E-19
   88.44010        3.2190018E-19
   88.56695        3.2183806E-19
   88.69379        3.2178277E-19
   88.82063        3.2173205E-19
   88.94748        3.2168346E-19
   89.07433        3.2163383E-19
   89.20116        3.2158063E-19
   89.32801        3.2152120E-19
   89.45486        3.2145407E-19
   89.58170        3.2137737E-19
   89.70854        3.2128962E-19
   89.83538        3.2119069E-19
   89.96223        3.2108034E-19
   90.08907        3.2095900E-19
   90.21591        3.2082787E-19
   90.34276        3.2068898E-19
   90.46960        3.2054353E-19
   90.59644        3.2039362E-19
   90.72329        3.2024230E-19
   90.85014        3.2009157E-19
   90.97697        3.1994408E-19
   91.10382        3.1980216E-19
   91.23067        3.1966739E-19
   91.35751        3.1954163E-19
   91.48435        3.1942520E-19
   91.61120        3.1931914E-19
   91.73804        3.1922378E-19
   91.86488        3.1913846E-19
   91.99173        3.1906223E-19
   92.11857        3.1899391E-19
   92.24541        3.1893256E-19
   92.37225        3.1887601E-19
   92.49910        3.1882232E-19
   92.62595        3.1877002E-19
   92.75278        3.1871701E-19
   92.87963        3.1866151E-19
   93.00648        3.1860149E-19
   93.13332        3.1853606E-19
   93.26016        3.1846379E-19
   93.38701        3.1838270E-19
   93.51385        3.1829238E-19
   93.64069        3.1819299E-19
   93.76754        3.1808259E-19
   93.89438        3.1796122E-19
   94.02122        3.1782947E-19
   94.14807        3.1768779E-19
   94.27491        3.1753641E-19
   94.40176        3.1737659E-19
   94.52859        3.1720944E-19
   94.65544        3.1703584E-19
   94.78229        3.1685797E-19
   94.90913        3.1667715E-19
   95.03597        3.1649577E-19
   95.16282        3.1631555E-19
   95.28966        3.1613959E-19
   95.41650        3.1596854E-19
   95.54335        3.1580471E-19
   95.67019        3.1564985E-19
   95.79704        3.1550530E-19
   95.92388        3.1537225E-19
   96.05072        3.1525094E-19
   96.17757        3.1514054E-19
   96.30441        3.1504244E-19
   96.43125        3.1495468E-19
   96.55810        3.1487682E-19
   96.68494        3.1480685E-19
   96.81178        3.1474308E-19
   96.93863        3.1468323E-19
   97.06547        3.1462489E-19
   97.19231        3.1456634E-19
   97.31916        3.1450467E-19
   97.44600        3.1443862E-19
   97.57285        3.1436593E-19
   97.69969        3.1428549E-19
   97.82653        3.1419603E-19
   97.95338        3.1409764E-19
   98.08022        3.1398985E-19
   98.20706        3.1387299E-19
   98.33391        3.1374767E-19
   98.46075        3.1361472E-19
   98.58759        3.1347571E-19
   98.71444        3.1333118E-19
   98.84129        3.1318301E-19
   98.96812        3.1303210E-19
   99.09497        3.1288104E-19
   99.22182        3.1273065E-19
   99.34866        3.1258181E-19
   99.47550        3.1243630E-19
   99.60234        3.1229514E-19
   99.72919        3.1215876E-19
   99.85603        3.1202783E-19
   99.98287        3.1190290E-19
   100.1097        3.1178446E-19
   100.2366        3.1167175E-19
   100.3634        3.1156497E-19
   100.4902        3.1146364E-19
   100.6171        3.1136717E-19
   100.7439        3.1127442E-19
   100.8708        3.1118511E-19
   100.9976        3.1109847E-19
   101.1245        3.1101288E-19
   101.2513        3.1092755E-19
   101.3782        3.1084271E-19
   101.5050        3.1075650E-19
   101.6318        3.1066857E-19
   101.7587        3.1057918E-19
   101.8855        3.1048803E-19
   102.0124        3.1039516E-19
   102.1392        3.1030163E-19
   102.2661        3.1020777E-19
   102.3929        3.1011513E-19
   102.5197        3.1002417E-19
   102.6466        3.0993638E-19
   102.7734        3.0985351E-19
   102.9003        3.0977612E-19
   103.0271        3.0970529E-19
   103.1540        3.0964157E-19
   103.2808        3.0958584E-19
   103.4077        3.0953765E-19
   103.5345        3.0949697E-19
   103.6613        3.0946308E-19
   103.7882        3.0943475E-19
   103.9150        3.0941120E-19
   104.0419        3.0939049E-19
   104.1687        3.0937046E-19
   104.2956        3.0935027E-19
   104.4224        3.0932802E-19
   104.5492        3.0930142E-19
   104.6761        3.0926926E-19
   104.8029        3.0922948E-19
   104.9298        3.0918080E-19
   105.0566        3.0912184E-19
   105.1835        3.0905225E-19
   105.3103        3.0897070E-19
   105.4371        3.0887749E-19
   105.5640        3.0877174E-19
   105.6908        3.0865353E-19
   105.8177        3.0852400E-19
   105.9445        3.0838348E-19
   106.0714        3.0823278E-19
   106.1982        3.0807292E-19
   106.3251        3.0790604E-19
   106.4519        3.0773414E-19
   106.5787        3.0755912E-19
   106.7056        3.0738373E-19
   106.8324        3.0721020E-19
   106.9593        3.0704120E-19
   107.0861        3.0687933E-19
   107.2130        3.0672666E-19
   107.3398        3.0658527E-19
   107.4667        3.0645744E-19
   107.5935        3.0634401E-19
   107.7203        3.0624506E-19
   107.8472        3.0616134E-19
   107.9740        3.0609180E-19