  -7.200000       -1.6260926E-18
  -7.073156       -1.6260555E-18
  -6.946313       -1.6259831E-18
  -6.819469       -1.6258775E-18
  -6.692626       -1.6257419E-18
  -6.565782       -1.6255819E-18
  -6.438938       -1.6254024E-18
  -6.312095       -1.6252095E-18
  -6.185251       -1.6250092E-18
  -6.058407       -1.6248073E-18
  -5.931563       -1.6246114E-18
  -5.804720       -1.6244264E-18
  -5.677876       -1.6242585E-18
  -5.551033       -1.6241119E-18
  -5.424189       -1.6239899E-18
  -5.297346       -1.6238965E-18
  -5.170502       -1.6238320E-18
  -5.043658       -1.6237968E-18
  -4.916814       -1.6237905E-18
  -4.789971       -1.6238104E-18
  -4.663127       -1.6238534E-18
  -4.536283       -1.6239154E-18
  -4.409440       -1.6239917E-18
  -4.282596       -1.6240770E-18
  -4.155753       -1.6241653E-18
  -4.028909       -1.6242501E-18
  -3.902065       -1.6243263E-18
  -3.775222       -1.6243875E-18
  -3.648378       -1.6244291E-18
  -3.521534       -1.6244470E-18
  -3.394691       -1.6244369E-18
  -3.267847       -1.6243968E-18
  -3.141004       -1.6243255E-18
  -3.014160       -1.6242231E-18
  -2.887316       -1.6240904E-18
  -2.760473       -1.6239291E-18
  -2.633629       -1.6237434E-18
  -2.506785       -1.6235364E-18
  -2.379942       -1.6233133E-18
  -2.253098       -1.6230790E-18
  -2.126254       -1.6228385E-18
  -1.999411       -1.6225989E-18
  -1.872567       -1.6223653E-18
  -1.745723       -1.6221429E-18
  -1.618880       -1.6219376E-18
  -1.492036       -1.6217532E-18
  -1.365193       -1.6215945E-18
  -1.238349       -1.6214645E-18
  -1.111505       -1.6213654E-18
 -0.9846617       -1.6212992E-18
 -0.8578180       -1.6212656E-18
 -0.7309744       -1.6212647E-18
 -0.6041307       -1.6212940E-18
 -0.4772871       -1.6213511E-18
 -0.3504435       -1.6214322E-18
 -0.2235998       -1.6215326E-18
 -9.6756198E-02   -1.6216467E-18
  3.0087441E-02   -1.6217687E-18
  0.1569311       -1.6218919E-18
  0.2837747       -1.6220104E-18
  0.4106184       -1.6221177E-18
  0.5374620       -1.6222082E-18
  0.6643056       -1.6222762E-18
  0.7911493       -1.6223184E-18
  0.9179929       -1.6223317E-18
   1.044837       -1.6223141E-18
   1.171680       -1.6222652E-18
   1.298524       -1.6221868E-18
   1.425367       -1.6220800E-18
   1.552211       -1.6219480E-18
   1.679055       -1.6217956E-18
   1.805898       -1.6216278E-18
   1.932742       -1.6214505E-18
   2.059586       -1.6212696E-18
   2.186429       -1.6210910E-18
   2.313273       -1.6209203E-18
   2.440117       -1.6207633E-18
   2.566960       -1.6206241E-18
   2.693804       -1.6205074E-18
   2.820647       -1.6204163E-18
   2.947491       -1.6203530E-18
   3.074335       -1.6203178E-18
   3.201178       -1.6203112E-18
   3.328022       -1.6203318E-18
   3.454866       -1.6203773E-18
   3.581709       -1.6204443E-18
   3.708553       -1.6205292E-18
   3.835397       -1.6206272E-18
   3.962240       -1.6207335E-18
   4.089084       -1.6208421E-18
   4.215928       -1.6209474E-18
   4.342771       -1.6210438E-18
   4.469615       -1.6211255E-18
   4.596458       -1.6211885E-18
   4.723302       -1.6212283E-18
   4.850146       -1.6212424E-18
   4.976989       -1.6212279E-18
   5.103833       -1.6211850E-18
   5.230677       -1.6211129E-18
   5.357520       -1.6210142E-18
   5.484364       -1.6208907E-18
   5.611207       -1.6207467E-18
   5.738051       -1.6205871E-18
   5.864895       -1.6204174E-18
   5.991738       -1.6202440E-18
   6.118582       -1.6200731E-18
   6.245426       -1.6199100E-18
   6.372270       -1.6197614E-18
   6.499113       -1.6196313E-18
   6.625957       -1.6195242E-18
   6.752800       -1.6194429E-18
   6.879644       -1.6193888E-18
   7.006487       -1.6193620E-18
   7.133331       -1.6193614E-18
   7.260175       -1.6193848E-18
   7.387019       -1.6194292E-18
   7.513862       -1.6194902E-18
   7.640706       -1.6195633E-18
   7.767550       -1.6196435E-18
   7.894393       -1.6197267E-18
   8.021236       -1.6198073E-18
   8.148081       -1.6198811E-18
   8.274924       -1.6199437E-18
   8.401768       -1.6199913E-18
   8.528611       -1.6200214E-18
   8.655455       -1.6200313E-18
   8.782298       -1.6200193E-18
   8.909142       -1.6199847E-18
   9.035986       -1.6199263E-18
   9.162829       -1.6198444E-18
   9.289673       -1.6197406E-18
   9.416516       -1.6196166E-18
   9.543361       -1.6194749E-18
   9.670204       -1.6193194E-18
   9.797048       -1.6191536E-18
   9.923891       -1.6189826E-18
   10.05073       -1.6188110E-18
   10.17758       -1.6186451E-18
   10.30442       -1.6184889E-18
   10.43127       -1.6183489E-18
   10.55811       -1.6182300E-18
   10.68495       -1.6181358E-18
   10.81180       -1.6180695E-18
   10.93864       -1.6180335E-18
   11.06548       -1.6180284E-18
   11.19233       -1.6180540E-18
   11.31917       -1.6181090E-18
   11.44602       -1.6181899E-18
   11.57286       -1.6182930E-18
   11.69970       -1.6184134E-18
   11.82655       -1.6185462E-18
   11.95339       -1.6186853E-18
   12.08023       -1.6188260E-18
   12.20708       -1.6189616E-18
   12.33392       -1.6190863E-18
   12.46076       -1.6191964E-18
   12.58761       -1.6192867E-18
   12.71445       -1.6193534E-18
   12.84130       -1.6193944E-18
   12.96814       -1.6194081E-18
   13.09498       -1.6193932E-18
   13.22183       -1.6193507E-18
   13.34867       -1.6192817E-18
   13.47551       -1.6191879E-18
   13.60236       -1.6190726E-18
   13.72920       -1.6189398E-18
   13.85604       -1.6187935E-18
   13.98289       -1.6186391E-18
   14.10973       -1.6184826E-18
   14.23658       -1.6183285E-18
   14.36342       -1.6181833E-18
   14.49026       -1.6180520E-18
   14.61711       -1.6179398E-18
   14.74395       -1.6178508E-18
   14.87079       -1.6177898E-18
   14.99764       -1.6177584E-18
   15.12448       -1.6177590E-18
   15.25132       -1.6177916E-18
   15.37817       -1.6178550E-18
   15.50501       -1.6179477E-18
   15.63186       -1.6180667E-18
   15.75870       -1.6182071E-18
   15.88554       -1.6183639E-18
   16.01239       -1.6185307E-18
   16.13923       -1.6187015E-18
   16.26607       -1.6188695E-18
   16.39292       -1.6190282E-18
   16.51976       -1.6191712E-18
   16.64660       -1.6192932E-18
   16.77345       -1.6193892E-18
   16.90029       -1.6194555E-18
   17.02714       -1.6194906E-18
   17.15398       -1.6194928E-18
   17.28082       -1.6194631E-18
   17.40767       -1.6194029E-18
   17.53451       -1.6193142E-18
   17.66135       -1.6192014E-18
   17.78820       -1.6190689E-18
   17.91504       -1.6189227E-18
   18.04188       -1.6187685E-18
   18.16873       -1.6186121E-18
   18.29557       -1.6184598E-18
   18.42241       -1.6183178E-18
   18.54926       -1.6181918E-18
   18.67610       -1.6180865E-18
   18.80295       -1.6180063E-18
   18.92979       -1.6179546E-18
   19.05663       -1.6179336E-18
   19.18348       -1.6179443E-18
   19.31032       -1.6179864E-18
   19.43716       -1.6180594E-18
   19.56401       -1.6181597E-18
   19.69085       -1.6182843E-18
   19.81770       -1.6184286E-18
   19.94454       -1.6185878E-18
   20.07138       -1.6187558E-18
   20.19823       -1.6189253E-18
   20.32507       -1.6190915E-18
   20.45191       -1.6192470E-18
   20.57876       -1.6193872E-18
   20.70560       -1.6195064E-18
   20.83245       -1.6196006E-18
   20.95929       -1.6196659E-18
   21.08613       -1.6197005E-18
   21.21297       -1.6197030E-18
   21.33982       -1.6196735E-18
   21.46666       -1.6196136E-18
   21.59351       -1.6195258E-18
   21.72035       -1.6194128E-18
   21.84719       -1.6192792E-18
   21.97404       -1.6191301E-18
   22.10088       -1.6189707E-18
   22.22772       -1.6188068E-18
   22.35457       -1.6186444E-18
   22.48141       -1.6184893E-18
   22.60826       -1.6183470E-18
   22.73510       -1.6182229E-18
   22.86194       -1.6181209E-18
   22.98879       -1.6180450E-18
   23.11563       -1.6179978E-18
   23.24247       -1.6179806E-18
   23.36932       -1.6179942E-18
   23.49616       -1.6180382E-18
   23.62300       -1.6181101E-18
   23.74985       -1.6182071E-18
   23.87669       -1.6183258E-18
   24.00353       -1.6184609E-18
   24.13038       -1.6186070E-18
   24.25722       -1.6187593E-18
   24.38407       -1.6189108E-18
   24.51091       -1.6190558E-18
   24.63775       -1.6191889E-18
   24.76460       -1.6193048E-18
   24.89144       -1.6193998E-18
   25.01828       -1.6194693E-18
   25.14513       -1.6195115E-18
   25.27197       -1.6195244E-18
   25.39882       -1.6195085E-18
   25.52566       -1.6194642E-18
   25.65250       -1.6193938E-18
   25.77935       -1.6193005E-18
   25.90619       -1.6191877E-18
   26.03303       -1.6190605E-18
   26.15988       -1.6189240E-18
   26.28672       -1.6187845E-18
   26.41356       -1.6186475E-18
   26.54041       -1.6185193E-18
   26.66725       -1.6184051E-18
   26.79410       -1.6183102E-18
   26.92094       -1.6182380E-18
   27.04778       -1.6181923E-18
   27.17463       -1.6181761E-18
   27.30147       -1.6181902E-18
   27.42831       -1.6182341E-18
   27.55516       -1.6183078E-18
   27.68200       -1.6184085E-18
   27.80884       -1.6185328E-18
   27.93569       -1.6186766E-18
   28.06253       -1.6188341E-18
   28.18937       -1.6190003E-18
   28.31622       -1.6191686E-18
   28.44306       -1.6193326E-18
   28.56991       -1.6194859E-18
   28.69675       -1.6196231E-18
   28.82359       -1.6197381E-18
   28.95044       -1.6198265E-18
   29.07728       -1.6198852E-18
   29.20412       -1.6199106E-18
   29.33097       -1.6199021E-18
   29.45781       -1.6198599E-18
   29.58466       -1.6197852E-18
   29.71150       -1.6196814E-18
   29.83834       -1.6195514E-18
   29.96519       -1.6194004E-18
   30.09203       -1.6192346E-18
   30.21887       -1.6190598E-18
   30.34572       -1.6188828E-18
   30.47256       -1.6187103E-18
   30.59941       -1.6185477E-18
   30.72625       -1.6184020E-18
   30.85309       -1.6182782E-18
   30.97993       -1.6181797E-18
   31.10678       -1.6181104E-18
   31.23362       -1.6180719E-18
   31.36047       -1.6180655E-18
   31.48731       -1.6180906E-18
   31.61415       -1.6181456E-18
   31.74100       -1.6182285E-18
   31.86784       -1.6183359E-18
   31.99468       -1.6184637E-18
   32.12153       -1.6186059E-18
   32.24837       -1.6187574E-18
   32.37521       -1.6189118E-18
   32.50206       -1.6190631E-18
   32.62890       -1.6192055E-18
   32.75574       -1.6193328E-18
   32.88259       -1.6194400E-18
   33.00943       -1.6195229E-18
   33.13628       -1.6195769E-18
   33.26312       -1.6195999E-18
   33.38997       -1.6195904E-18
   33.51681       -1.6195483E-18
   33.64365       -1.6194756E-18
   33.77050       -1.6193750E-18
   33.89734       -1.6192493E-18
   34.02418       -1.6191045E-18
   34.15103       -1.6189468E-18
   34.27787       -1.6187819E-18
   34.40471       -1.6186169E-18
   34.53156       -1.6184583E-18
   34.65840       -1.6183131E-18
   34.78524       -1.6181874E-18
   34.91209       -1.6180861E-18
   35.03893       -1.6180128E-18
   35.16578       -1.6179706E-18
   35.29262       -1.6179606E-18
   35.41946       -1.6179835E-18
   35.54631       -1.6180378E-18
   35.67315       -1.6181213E-18
   35.80000       -1.6182301E-18
   35.92684       -1.6183602E-18
   36.05368       -1.6185063E-18
   36.18052       -1.6186620E-18
   36.30737       -1.6188214E-18
   36.43421       -1.6189785E-18
   36.56105       -1.6191263E-18
   36.68790       -1.6192601E-18
   36.81474       -1.6193742E-18
   36.94159       -1.6194640E-18
   37.06843       -1.6195255E-18
   37.19527       -1.6195558E-18
   37.32212       -1.6195536E-18
   37.44896       -1.6195181E-18
   37.57581       -1.6194506E-18
   37.70265       -1.6193524E-18
   37.82949       -1.6192271E-18
   37.95634       -1.6190779E-18
   38.08318       -1.6189111E-18
   38.21002       -1.6187311E-18
   38.33687       -1.6185449E-18
   38.46371       -1.6183588E-18
   38.59055       -1.6181787E-18
   38.71740       -1.6180113E-18
   38.84424       -1.6178624E-18
   38.97108       -1.6177375E-18
   39.09793       -1.6176411E-18
   39.22477       -1.6175759E-18
   39.35162       -1.6175434E-18
   39.47846       -1.6175449E-18
   39.60530       -1.6175800E-18
   39.73215       -1.6176462E-18
   39.85899       -1.6177400E-18
   39.98583       -1.6178578E-18
   40.11268       -1.6179940E-18
   40.23952       -1.6181442E-18
   40.36636       -1.6183018E-18
   40.49321       -1.6184603E-18
   40.62005       -1.6186143E-18
   40.74689       -1.6187571E-18
   40.87374       -1.6188836E-18
   41.00058       -1.6189894E-18
   41.12743       -1.6190708E-18
   41.25427       -1.6191249E-18
   41.38111       -1.6191500E-18
   41.50796       -1.6191456E-18
   41.63480       -1.6191113E-18
   41.76165       -1.6190492E-18
   41.88849       -1.6189624E-18
   42.01533       -1.6188542E-18
   42.14218       -1.6187293E-18
   42.26902       -1.6185921E-18
   42.39586       -1.6184486E-18
   42.52271       -1.6183047E-18
   42.64955       -1.6181663E-18
   42.77639       -1.6180391E-18
   42.90324       -1.6179290E-18
   43.03008       -1.6178397E-18
   43.15693       -1.6177750E-18
   43.28377       -1.6177379E-18
   43.41061       -1.6177300E-18
   43.53746       -1.6177513E-18
   43.66430       -1.6178004E-18
   43.79114       -1.6178754E-18
   43.91799       -1.6179733E-18
   44.04483       -1.6180899E-18
   44.17167       -1.6182204E-18
   44.29852       -1.6183589E-18
   44.42536       -1.6185001E-18
   44.55220       -1.6186383E-18
   44.67905       -1.6187669E-18
   44.80589       -1.6188812E-18
   44.93274       -1.6189765E-18
   45.05958       -1.6190483E-18
   45.18642       -1.6190942E-18
   45.31327       -1.6191114E-18
   45.44011       -1.6190988E-18
   45.56696       -1.6190563E-18
   45.69380       -1.6189851E-18
   45.82064       -1.6188868E-18
   45.94748       -1.6187651E-18
   46.07433       -1.6186230E-18
   46.20117       -1.6184654E-18
   46.32801       -1.6182966E-18
   46.45486       -1.6181228E-18
   46.58170       -1.6179495E-18
   46.70855       -1.6177826E-18
   46.83539       -1.6176275E-18
   46.96223       -1.6174895E-18
   47.08908       -1.6173733E-18
   47.21592       -1.6172824E-18
   47.34277       -1.6172199E-18
   47.46961       -1.6171870E-18
   47.59645       -1.6171849E-18
   47.72330       -1.6172129E-18
   47.85014       -1.6172697E-18
   47.97698       -1.6173521E-18
   48.10383       -1.6174563E-18
   48.23067       -1.6175778E-18
   48.35751       -1.6177110E-18
   48.48436       -1.6178515E-18
   48.61120       -1.6179931E-18
   48.73804       -1.6181305E-18
   48.86489       -1.6182588E-18
   48.99173       -1.6183728E-18
   49.11858       -1.6184683E-18
   49.24542       -1.6185418E-18
   49.37226       -1.6185908E-18
   49.49911       -1.6186136E-18
   49.62595       -1.6186098E-18
   49.75279       -1.6185783E-18
   49.87964       -1.6185218E-18
   50.00648       -1.6184411E-18
   50.13332       -1.6183389E-18
   50.26017       -1.6182177E-18
   50.38701       -1.6180821E-18
   50.51385       -1.6179371E-18
   50.64070       -1.6177867E-18
   50.76754       -1.6176366E-18
   50.89439       -1.6174921E-18
   51.02123       -1.6173583E-18
   51.14808       -1.6172402E-18
   51.27492       -1.6171430E-18
   51.40176       -1.6170700E-18
   51.52861       -1.6170243E-18
   51.65545       -1.6170082E-18
   51.78229       -1.6170221E-18
   51.90914       -1.6170662E-18
   52.03598       -1.6171386E-18
   52.16282       -1.6172362E-18
   52.28967       -1.6173543E-18
   52.41651       -1.6174885E-18
   52.54335       -1.6176330E-18
   52.67020       -1.6177816E-18
   52.79704       -1.6179286E-18
   52.92389       -1.6180681E-18
   53.05073       -1.6181944E-18
   53.17757       -1.6183020E-18
   53.30442       -1.6183878E-18
   53.43126       -1.6184486E-18
   53.55810       -1.6184829E-18
   53.68495       -1.6184904E-18
   53.81179       -1.6184717E-18
   53.93863       -1.6184284E-18
   54.06548       -1.6183624E-18
   54.19232       -1.6182783E-18
   54.31916       -1.6181789E-18
   54.44601       -1.6180699E-18
   54.57285       -1.6179562E-18
   54.69970       -1.6178424E-18
   54.82654       -1.6177336E-18
   54.95338       -1.6176347E-18
   55.08023       -1.6175494E-18
   55.20707       -1.6174821E-18
   55.33392       -1.6174346E-18
   55.46076       -1.6174093E-18
   55.58760       -1.6174061E-18
   55.71444       -1.6174259E-18
   55.84129       -1.6174656E-18
   55.96813       -1.6175233E-18
   56.09497       -1.6175947E-18
   56.22182       -1.6176748E-18
   56.34866       -1.6177580E-18
   56.47551       -1.6178372E-18
   56.60235       -1.6179061E-18
   56.72919       -1.6179574E-18
   56.85604       -1.6179844E-18
   56.98288       -1.6179797E-18
   57.10973       -1.6179384E-18
   57.23657       -1.6178555E-18
   57.36341       -1.6177271E-18
   57.49026       -1.6175508E-18
   57.61710       -1.6173242E-18
   57.74394       -1.6170480E-18
   57.87079       -1.6167226E-18
   57.99763       -1.6163510E-18
   58.12447       -1.6159358E-18
   58.25132       -1.6154805E-18
   58.37816       -1.6149907E-18
   58.50500       -1.6144711E-18
   58.63185       -1.6139268E-18
   58.75869       -1.6133642E-18
   58.88554       -1.6127887E-18
   59.01238       -1.6122052E-18
   59.13923       -1.6116194E-18
   59.26607       -1.6110346E-18
   59.39291       -1.6104552E-18
   59.51975       -1.6098839E-18
   59.64660       -1.6093229E-18
   59.77344       -1.6087735E-18
   59.90028       -1.6082360E-18
   60.02713       -1.6077095E-18
   60.15397       -1.6071917E-18
   60.28082       -1.6066805E-18
   60.40766       -1.6061721E-18
   60.53450       -1.6056617E-18
   60.66135       -1.6051445E-18
   60.78819       -1.6046150E-18
   60.91504       -1.6040677E-18
   61.04188       -1.6034975E-18
   61.16872       -1.6028986E-18
   61.29557       -1.6022668E-18
   61.42241       -1.6015983E-18
   61.54925       -1.6008904E-18
   61.67610       -1.6001411E-18
   61.80294       -1.5993501E-18
   61.92978       -1.5985178E-18
   62.05663       -1.5976465E-18
   62.18347       -1.5967396E-18
   62.31031       -1.5958007E-18
   62.43716       -1.5948354E-18
   62.56400       -1.5938499E-18
   62.69085       -1.5928503E-18
   62.81769       -1.5918436E-18
   62.94453       -1.5908363E-18
   63.07138       -1.5898346E-18
   63.19822       -1.5888445E-18
   63.32506       -1.5878720E-18
   63.45191       -1.5869209E-18
   63.57875       -1.5859941E-18
   63.70559       -1.5850939E-18
   63.83244       -1.5842211E-18
   63.95928       -1.5833754E-18
   64.08613       -1.5825540E-18
   64.21297       -1.5817543E-18
   64.33981       -1.5809726E-18
   64.46666       -1.5802033E-18
   64.59350       -1.5794410E-18
   64.72034       -1.5786787E-18
   64.84719       -1.5779108E-18
   64.97403       -1.5771305E-18
   65.10088       -1.5763316E-18
   65.22771       -1.5755084E-18
   65.35456       -1.5746560E-18
   65.48141       -1.5737703E-18
   65.60825       -1.5728488E-18
   65.73509       -1.5718893E-18
   65.86194       -1.5708918E-18
   65.98878       -1.5698572E-18
   66.11562       -1.5687869E-18
   66.24247       -1.5676843E-18
   66.36931       -1.5665526E-18
   66.49615       -1.5653969E-18
   66.62300       -1.5642218E-18
   66.74984       -1.5630328E-18
   66.87669       -1.5618353E-18
   67.00353       -1.5606349E-18
   67.13037       -1.5594368E-18
   67.25722       -1.5582444E-18
   67.38406       -1.5570625E-18
   67.51090       -1.5558939E-18
   67.63775       -1.5547410E-18
   67.76459       -1.5536048E-18
   67.89143       -1.5524864E-18
   68.01828       -1.5513844E-18
   68.14512       -1.5502971E-18
   68.27197       -1.5492223E-18
   68.39881       -1.5481573E-18
   68.52565       -1.5470978E-18
   68.65250       -1.5460399E-18
   68.77934       -1.5449787E-18
   68.90618       -1.5439093E-18
   69.03303       -1.5428274E-18
   69.15987       -1.5417277E-18
   69.28671       -1.5406068E-18
   69.41356       -1.5394608E-18
   69.54041       -1.5382859E-18
   69.66724       -1.5370806E-18
   69.79409       -1.5358434E-18
   69.92093       -1.5345739E-18
   70.04778       -1.5332723E-18
   70.17462       -1.5319408E-18
   70.30146       -1.5305806E-18
   70.42831       -1.5291953E-18
   70.55515       -1.5277884E-18
   70.68199       -1.5263644E-18
   70.80884       -1.5249260E-18
   70.93568       -1.5234790E-18
   71.06252       -1.5220271E-18
   71.18937       -1.5205747E-18
   71.31622       -1.5191256E-18
   71.44305       -1.5176826E-18
   71.56990       -1.5162477E-18
   71.69675       -1.5148239E-18
   71.82359       -1.5134116E-18
   71.95043       -1.5120121E-18
   72.07728       -1.5106236E-18
   72.20412       -1.5092461E-18
   72.33096       -1.5078782E-18
   72.45780       -1.5065166E-18
   72.58465       -1.5051589E-18
   72.71149       -1.5038015E-18
   72.83833       -1.5024412E-18
   72.96518       -1.5010746E-18
   73.09203       -1.4996976E-18
   73.21886       -1.4983067E-18
   73.34571       -1.4969001E-18
   73.47256       -1.4954748E-18
   73.59940       -1.4940290E-18
   73.72624       -1.4925617E-18
   73.85309       -1.4910741E-18
   73.97993       -1.4895659E-18
   74.10677       -1.4880389E-18
   74.23362       -1.4864962E-18
   74.36046       -1.4849409E-18
   74.48730       -1.4833777E-18
   74.61415       -1.4818108E-18
   74.74099       -1.4802458E-18
   74.86784       -1.4786875E-18
   74.99467       -1.4771413E-18
   75.12152       -1.4756120E-18
   75.24837       -1.4741042E-18
   75.37521       -1.4726223E-18
   75.50205       -1.4711694E-18
   75.62890       -1.4697481E-18
   75.75574       -1.4683593E-18
   75.88258       -1.4670047E-18
   76.00943       -1.4656827E-18
   76.13627       -1.4643922E-18
   76.26311       -1.4631310E-18
   76.38996       -1.4618956E-18
   76.51680       -1.4606831E-18
   76.64365       -1.4594881E-18
   76.77049       -1.4583066E-18
   76.89733       -1.4571334E-18
   77.02418       -1.4559642E-18
   77.15102       -1.4547938E-18
   77.27786       -1.4536175E-18
   77.40471       -1.4524328E-18
   77.53155       -1.4512357E-18
   77.65839       -1.4500241E-18
   77.78524       -1.4487963E-18
   77.91208       -1.4475520E-18
   78.03893       -1.4462908E-18
   78.16577       -1.4450143E-18
   78.29261       -1.4437247E-18
   78.41946       -1.4424258E-18
   78.54630       -1.4411213E-18
   78.67314       -1.4398158E-18
   78.79999       -1.4385144E-18
   78.92683       -1.4372229E-18
   79.05367       -1.4359471E-18
   79.18052       -1.4346921E-18
   79.30737       -1.4334633E-18
   79.43420       -1.4322649E-18
   79.56105       -1.4311002E-18
   79.68790       -1.4299713E-18
   79.81474       -1.4288790E-18
   79.94158       -1.4278230E-18
   80.06842       -1.4268016E-18
   80.19527       -1.4258120E-18
   80.32211       -1.4248493E-18
   80.44895       -1.4239090E-18
   80.57580       -1.4229844E-18
   80.70264       -1.4220685E-18
   80.82948       -1.4211544E-18
   80.95633       -1.4202355E-18
   81.08318       -1.4193046E-18
   81.21001       -1.4183562E-18
   81.33686       -1.4173841E-18
   81.46371       -1.4163845E-18
   81.59055       -1.4153538E-18
   81.71739       -1.4142908E-18
   81.84424       -1.4131942E-18
   81.97108       -1.4120649E-18
   82.09792       -1.4109056E-18
   82.22476       -1.4097188E-18
   82.35161       -1.4085101E-18
   82.47845       -1.4072843E-18
   82.60529       -1.4060484E-18
   82.73214       -1.4048087E-18
   82.85899       -1.4035735E-18
   82.98582       -1.4023505E-18
   83.11267       -1.4011466E-18
   83.23952       -1.3999690E-18
   83.36636       -1.3988234E-18
   83.49320       -1.3977173E-18
   83.62005       -1.3966542E-18
   83.74689       -1.3956374E-18
   83.87373       -1.3946695E-18
   84.00058       -1.3937506E-18
   84.12742       -1.3928810E-18
   84.25426       -1.3920578E-18
   84.38111       -1.3912784E-18
   84.50795       -1.3905381E-18
   84.63480       -1.3898318E-18
   84.76163       -1.3891524E-18
   84.88848       -1.3884942E-18
   85.01533       -1.3878489E-18
   85.14217       -1.3872101E-18
   85.26901       -1.3865700E-18
   85.39586       -1.3859219E-18
   85.52270       -1.3852599E-18
   85.64954       -1.3845784E-18
   85.77639       -1.3838728E-18
   85.90323       -1.3831408E-18
   86.03008       -1.3823797E-18
   86.15692       -1.3815898E-18
   86.28376       -1.3807711E-18
   86.41061       -1.3799255E-18
   86.53745       -1.3790562E-18
   86.66429       -1.3781662E-18
   86.79114       -1.3772618E-18
   86.91798       -1.3763474E-18
   87.04482       -1.3754287E-18
   87.17167       -1.3745115E-18
   87.29851       -1.3736024E-18
   87.42535       -1.3727067E-18
   87.55220       -1.3718306E-18
   87.67904       -1.3709785E-18
   87.80589       -1.3701545E-18
   87.93273       -1.3693617E-18
   88.05957       -1.3686025E-18
   88.18642       -1.3678776E-18
   88.31326       -1.3671873E-18
   88.44010       -1.3665302E-18
   88.56695       -1.3659034E-18
   88.69379       -1.3653031E-18
   88.82063       -1.3647250E-18
   88.94748       -1.3641637E-18
   89.07433       -1.3636128E-18
   89.20116       -1.3630667E-18
   89.32801       -1.3625182E-18
   89.45486       -1.3619625E-18
   89.58170       -1.3613933E-18
   89.70854       -1.3608064E-18
   89.83538       -1.3601980E-18
   89.96223       -1.3595657E-18
   90.08907       -1.3589085E-18
   90.21591       -1.3582268E-18
   90.34276       -1.3575208E-18
   90.46960       -1.3567944E-18
   90.59644       -1.3560505E-18
   90.72329       -1.3552935E-18
   90.85014       -1.3545282E-18
   90.97697       -1.3537606E-18
   91.10382       -1.3529967E-18
   91.23067       -1.3522416E-18
   91.35751       -1.3515001E-18
   91.48435       -1.3507764E-18
   91.61120       -1.3500745E-18
   91.73804       -1.3493970E-18
   91.86488       -1.3487462E-18
   91.99173       -1.3481218E-18
   92.11857       -1.3475245E-18
   92.24541       -1.3469522E-18
   92.37225       -1.3464015E-18
   92.49910       -1.3458696E-18
   92.62595       -1.3453521E-18
   92.75278       -1.3448429E-18
   92.87963       -1.3443368E-18
   93.00648       -1.3438288E-18
   93.13332       -1.3433110E-18
   93.26016       -1.3427786E-18
   93.38701       -1.3422253E-18
   93.51385       -1.3416466E-18
   93.64069       -1.3410383E-18
   93.76754       -1.3403982E-18
   93.89438       -1.3397240E-18
   94.02122       -1.3390159E-18
   94.14807       -1.3382755E-18
   94.27491       -1.3375057E-18
   94.40176       -1.3367107E-18
   94.52859       -1.3358963E-18
   94.65544       -1.3350693E-18
   94.78229       -1.3342371E-18
   94.90913       -1.3334079E-18
   95.03597       -1.3325902E-18
   95.16282       -1.3317918E-18
   95.28966       -1.3310205E-18
   95.41650       -1.3302827E-18
   95.54335       -1.3295841E-18
   95.67019       -1.3289295E-18
   95.79704       -1.3283207E-18
   95.92388       -1.3277593E-18
   96.05072       -1.3272446E-18
   96.17757       -1.3267736E-18
   96.30441       -1.3263432E-18
   96.43125       -1.3259481E-18
   96.55810       -1.3255815E-18
   96.68494       -1.3252363E-18
   96.81178       -1.3249041E-18
   96.93863       -1.3245767E-18
   97.06547       -1.3242460E-18
   97.19231       -1.3239033E-18
   97.31916       -1.3235411E-18
   97.44600       -1.3231517E-18
   97.57285       -1.3227298E-18
   97.69969       -1.3222705E-18
   97.82653       -1.3217704E-18
   97.95338       -1.3212276E-18
   98.08022       -1.3206418E-18
   98.20706       -1.3200145E-18
   98.33391       -1.3193478E-18
   98.46075       -1.3186459E-18
   98.58759       -1.3179150E-18
   98.71444       -1.3171612E-18
   98.84129       -1.3163912E-18
   98.96812       -1.3156129E-18
   99.09497       -1.3148340E-18
   99.22182       -1.3140619E-18
   99.34866       -1.3133041E-18
   99.47550       -1.3125675E-18
   99.60234       -1.3118571E-18
   99.72919       -1.3111777E-18
   99.85603       -1.3105321E-18
   99.98287       -1.3099224E-18
   100.1097       -1.3093482E-18
   100.2366       -1.3088088E-18
   100.3634       -1.3083015E-18
   100.4902       -1.3078225E-18
   100.6171       -1.3073670E-18
   100.7439       -1.3069285E-18
   100.8708       -1.3065013E-18
   100.9976       -1.3060778E-18
   101.1245       -1.3056520E-18
   101.2513       -1.3052173E-18
   101.3782       -1.3047672E-18
   101.5050       -1.3042963E-18
   101.6318       -1.3038008E-18
   101.7587       -1.3032769E-18
   101.8855       -1.3027237E-18
   102.0124       -1.3021400E-18
   102.1392       -1.3015272E-18
   102.2661       -1.3008879E-18
   102.3929       -1.3002254E-18
   102.5197       -1.2995449E-18
   102.6466       -1.2988513E-18
   102.7734       -1.2981510E-18
   102.9003       -1.2974510E-18
   103.0271       -1.2967578E-18
   103.1540       -1.2960779E-18
   103.2808       -1.2954161E-18
   103.4077       -1.2947784E-18
   103.5345       -1.2941675E-18
   103.6613       -1.2935873E-18
   103.7882       -1.2930386E-18
   103.9150       -1.2925209E-18
   104.0419       -1.2920326E-18
   104.1687       -1.2915710E-18
   104.2956       -1.2911310E-18
   104.4224       -1.2907071E-18
   104.5492       -1.2902932E-18
   104.6761       -1.2898822E-18
   104.8029       -1.2894664E-18
   104.9298       -1.2890384E-18
   105.0566       -1.2885906E-18
   105.1835       -1.2881172E-18
   105.3103       -1.2876120E-18
   105.4371       -1.2870704E-18
   105.5640       -1.2864891E-18
   105.6908       -1.2858663E-18
   105.8177       -1.2852020E-18
   105.9445       -1.2844977E-18
   106.0714       -1.2837558E-18
   106.1982       -1.2829815E-18
   106.3251       -1.2821807E-18
   106.4519       -1.2813606E-18
   106.5787       -1.2805287E-18
   106.7056       -1.2796944E-18
   106.8324       -1.2788662E-18
   106.9593       -1.2780535E-18
   107.0861       -1.2772655E-18
   107.2130       -1.2765107E-18
   107.3398       -1.2757963E-18
   107.4667       -1.2751293E-18
   107.5935       -1.2745135E-18
   107.7203       -1.2739525E-18
   107.8472       -1.2734485E-18
   107.9740       -1.2730004E-18