  -7.200000        1.0908379E-17
  -7.073156        1.0908386E-17
  -6.946313        1.0908398E-17
  -6.819469        1.0908414E-17
  -6.692626        1.0908433E-17
  -6.565782        1.0908450E-17
  -6.438938        1.0908466E-17
  -6.312095        1.0908478E-17
  -6.185251        1.0908485E-17
  -6.058407        1.0908486E-17
  -5.931563        1.0908482E-17
  -5.804720        1.0908474E-17
  -5.677876        1.0908465E-17
  -5.551033        1.0908457E-17
  -5.424189        1.0908452E-17
  -5.297346        1.0908454E-17
  -5.170502        1.0908464E-17
  -5.043658        1.0908485E-17
  -4.916814        1.0908516E-17
  -4.789971        1.0908558E-17
  -4.663127        1.0908607E-17
  -4.536283        1.0908663E-17
  -4.409440        1.0908722E-17
  -4.282596        1.0908779E-17
  -4.155753        1.0908834E-17
  -4.028909        1.0908881E-17
  -3.902065        1.0908919E-17
  -3.775222        1.0908946E-17
  -3.648378        1.0908963E-17
  -3.521534        1.0908971E-17
  -3.394691        1.0908972E-17
  -3.267847        1.0908969E-17
  -3.141004        1.0908965E-17
  -3.014160        1.0908964E-17
  -2.887316        1.0908969E-17
  -2.760473        1.0908981E-17
  -2.633629        1.0909004E-17
  -2.506785        1.0909034E-17
  -2.379942        1.0909074E-17
  -2.253098        1.0909120E-17
  -2.126254        1.0909168E-17
  -1.999411        1.0909216E-17
  -1.872567        1.0909261E-17
  -1.745723        1.0909298E-17
  -1.618880        1.0909325E-17
  -1.492036        1.0909341E-17
  -1.365193        1.0909345E-17
  -1.238349        1.0909340E-17
  -1.111505        1.0909325E-17
 -0.9846617        1.0909304E-17
 -0.8578180        1.0909280E-17
 -0.7309744        1.0909255E-17
 -0.6041307        1.0909233E-17
 -0.4772871        1.0909215E-17
 -0.3504435        1.0909203E-17
 -0.2235998        1.0909196E-17
 -9.6756198E-02    1.0909193E-17
  3.0087441E-02    1.0909192E-17
  0.1569311        1.0909190E-17
  0.2837747        1.0909182E-17
  0.4106184        1.0909167E-17
  0.5374620        1.0909141E-17
  0.6643056        1.0909104E-17
  0.7911493        1.0909053E-17
  0.9179929        1.0908990E-17
   1.044837        1.0908918E-17
   1.171680        1.0908839E-17
   1.298524        1.0908758E-17
   1.425367        1.0908678E-17
   1.552211        1.0908605E-17
   1.679055        1.0908542E-17
   1.805898        1.0908491E-17
   1.932742        1.0908454E-17
   2.059586        1.0908430E-17
   2.186429        1.0908418E-17
   2.313273        1.0908414E-17
   2.440117        1.0908414E-17
   2.566960        1.0908414E-17
   2.693804        1.0908413E-17
   2.820647        1.0908406E-17
   2.947491        1.0908392E-17
   3.074335        1.0908372E-17
   3.201178        1.0908347E-17
   3.328022        1.0908319E-17
   3.454866        1.0908291E-17
   3.581709        1.0908268E-17
   3.708553        1.0908253E-17
   3.835397        1.0908249E-17
   3.962240        1.0908258E-17
   4.089084        1.0908281E-17
   4.215928        1.0908314E-17
   4.342771        1.0908359E-17
   4.469615        1.0908410E-17
   4.596458        1.0908465E-17
   4.723302        1.0908519E-17
   4.850146        1.0908567E-17
   4.976989        1.0908606E-17
   5.103833        1.0908635E-17
   5.230677        1.0908654E-17
   5.357520        1.0908663E-17
   5.484364        1.0908664E-17
   5.611207        1.0908660E-17
   5.738051        1.0908656E-17
   5.864895        1.0908656E-17
   5.991738        1.0908664E-17
   6.118582        1.0908681E-17
   6.245426        1.0908711E-17
   6.372270        1.0908753E-17
   6.499113        1.0908807E-17
   6.625957        1.0908868E-17
   6.752800        1.0908933E-17
   6.879644        1.0908999E-17
   7.006487        1.0909061E-17
   7.133331        1.0909114E-17
   7.260175        1.0909158E-17
   7.387019        1.0909190E-17
   7.513862        1.0909213E-17
   7.640706        1.0909228E-17
   7.767550        1.0909238E-17
   7.894393        1.0909247E-17
   8.021236        1.0909260E-17
   8.148081        1.0909280E-17
   8.274924        1.0909309E-17
   8.401768        1.0909349E-17
   8.528611        1.0909401E-17
   8.655455        1.0909460E-17
   8.782298        1.0909525E-17
   8.909142        1.0909593E-17
   9.035986        1.0909659E-17
   9.162829        1.0909717E-17
   9.289673        1.0909765E-17
   9.416516        1.0909802E-17
   9.543361        1.0909827E-17
   9.670204        1.0909840E-17
   9.797048        1.0909844E-17
   9.923891        1.0909841E-17
   10.05073        1.0909836E-17
   10.17758        1.0909833E-17
   10.30442        1.0909835E-17
   10.43127        1.0909844E-17
   10.55811        1.0909863E-17
   10.68495        1.0909892E-17
   10.81180        1.0909929E-17
   10.93864        1.0909974E-17
   11.06548        1.0910023E-17
   11.19233        1.0910073E-17
   11.31917        1.0910120E-17
   11.44602        1.0910162E-17
   11.57286        1.0910198E-17
   11.69970        1.0910224E-17
   11.82655        1.0910243E-17
   11.95339        1.0910253E-17
   12.08023        1.0910258E-17
   12.20708        1.0910262E-17
   12.33392        1.0910265E-17
   12.46076        1.0910272E-17
   12.58761        1.0910284E-17
   12.71445        1.0910303E-17
   12.84130        1.0910329E-17
   12.96814        1.0910362E-17
   13.09498        1.0910398E-17
   13.22183        1.0910435E-17
   13.34867        1.0910471E-17
   13.47551        1.0910502E-17
   13.60236        1.0910525E-17
   13.72920        1.0910538E-17
   13.85604        1.0910540E-17
   13.98289        1.0910532E-17
   14.10973        1.0910516E-17
   14.23658        1.0910493E-17
   14.36342        1.0910467E-17
   14.49026        1.0910442E-17
   14.61711        1.0910420E-17
   14.74395        1.0910404E-17
   14.87079        1.0910396E-17
   14.99764        1.0910397E-17
   15.12448        1.0910408E-17
   15.25132        1.0910428E-17
   15.37817        1.0910456E-17
   15.50501        1.0910489E-17
   15.63186        1.0910525E-17
   15.75870        1.0910562E-17
   15.88554        1.0910597E-17
   16.01239        1.0910630E-17
   16.13923        1.0910658E-17
   16.26607        1.0910682E-17
   16.39292        1.0910702E-17
   16.51976        1.0910717E-17
   16.64660        1.0910730E-17
   16.77345        1.0910741E-17
   16.90029        1.0910751E-17
   17.02714        1.0910763E-17
   17.15398        1.0910776E-17
   17.28082        1.0910792E-17
   17.40767        1.0910810E-17
   17.53451        1.0910831E-17
   17.66135        1.0910854E-17
   17.78820        1.0910879E-17
   17.91504        1.0910904E-17
   18.04188        1.0910927E-17
   18.16873        1.0910949E-17
   18.29557        1.0910968E-17
   18.42241        1.0910983E-17
   18.54926        1.0910995E-17
   18.67610        1.0911003E-17
   18.80295        1.0911008E-17
   18.92979        1.0911011E-17
   19.05663        1.0911014E-17
   19.18348        1.0911018E-17
   19.31032        1.0911023E-17
   19.43716        1.0911031E-17
   19.56401        1.0911043E-17
   19.69085        1.0911057E-17
   19.81770        1.0911076E-17
   19.94454        1.0911098E-17
   20.07138        1.0911122E-17
   20.19823        1.0911148E-17
   20.32507        1.0911173E-17
   20.45191        1.0911199E-17
   20.57876        1.0911223E-17
   20.70560        1.0911245E-17
   20.83245        1.0911265E-17
   20.95929        1.0911282E-17
   21.08613        1.0911298E-17
   21.21297        1.0911312E-17
   21.33982        1.0911326E-17
   21.46666        1.0911339E-17
   21.59351        1.0911354E-17
   21.72035        1.0911371E-17
   21.84719        1.0911390E-17
   21.97404        1.0911411E-17
   22.10088        1.0911435E-17
   22.22772        1.0911459E-17
   22.35457        1.0911484E-17
   22.48141        1.0911508E-17
   22.60826        1.0911531E-17
   22.73510        1.0911550E-17
   22.86194        1.0911566E-17
   22.98879        1.0911578E-17
   23.11563        1.0911586E-17
   23.24247        1.0911591E-17
   23.36932        1.0911594E-17
   23.49616        1.0911598E-17
   23.62300        1.0911604E-17
   23.74985        1.0911614E-17
   23.87669        1.0911630E-17
   24.00353        1.0911652E-17
   24.13038        1.0911682E-17
   24.25722        1.0911720E-17
   24.38407        1.0911764E-17
   24.51091        1.0911812E-17
   24.63775        1.0911863E-17
   24.76460        1.0911912E-17
   24.89144        1.0911958E-17
   25.01828        1.0911998E-17
   25.14513        1.0912030E-17
   25.27197        1.0912053E-17
   25.39882        1.0912066E-17
   25.52566        1.0912070E-17
   25.65250        1.0912068E-17
   25.77935        1.0912061E-17
   25.90619        1.0912051E-17
   26.03303        1.0912042E-17
   26.15988        1.0912036E-17
   26.28672        1.0912035E-17
   26.41356        1.0912043E-17
   26.54041        1.0912057E-17
   26.66725        1.0912080E-17
   26.79410        1.0912109E-17
   26.92094        1.0912143E-17
   27.04778        1.0912180E-17
   27.17463        1.0912216E-17
   27.30147        1.0912250E-17
   27.42831        1.0912281E-17
   27.55516        1.0912306E-17
   27.68200        1.0912325E-17
   27.80884        1.0912338E-17
   27.93569        1.0912349E-17
   28.06253        1.0912357E-17
   28.18937        1.0912365E-17
   28.31622        1.0912376E-17
   28.44306        1.0912392E-17
   28.56991        1.0912413E-17
   28.69675        1.0912441E-17
   28.82359        1.0912477E-17
   28.95044        1.0912516E-17
   29.07728        1.0912559E-17
   29.20412        1.0912602E-17
   29.33097        1.0912643E-17
   29.45781        1.0912679E-17
   29.58466        1.0912708E-17
   29.71150        1.0912729E-17
   29.83834        1.0912742E-17
   29.96519        1.0912748E-17
   30.09203        1.0912749E-17
   30.21887        1.0912747E-17
   30.34572        1.0912746E-17
   30.47256        1.0912747E-17
   30.59941        1.0912754E-17
   30.72625        1.0912768E-17
   30.85309        1.0912791E-17
   30.97993        1.0912823E-17
   31.10678        1.0912863E-17
   31.23362        1.0912909E-17
   31.36047        1.0912958E-17
   31.48731        1.0913009E-17
   31.61415        1.0913057E-17
   31.74100        1.0913101E-17
   31.86784        1.0913137E-17
   31.99468        1.0913165E-17
   32.12153        1.0913186E-17
   32.24837        1.0913198E-17
   32.37521        1.0913205E-17
   32.50206        1.0913208E-17
   32.62890        1.0913208E-17
   32.75574        1.0913211E-17
   32.88259        1.0913216E-17
   33.00943        1.0913227E-17
   33.13628        1.0913245E-17
   33.26312        1.0913269E-17
   33.38997        1.0913300E-17
   33.51681        1.0913335E-17
   33.64365        1.0913373E-17
   33.77050        1.0913412E-17
   33.89734        1.0913446E-17
   34.02418        1.0913475E-17
   34.15103        1.0913499E-17
   34.27787        1.0913516E-17
   34.40471        1.0913527E-17
   34.53156        1.0913534E-17
   34.65840        1.0913541E-17
   34.78524        1.0913549E-17
   34.91209        1.0913563E-17
   35.03893        1.0913586E-17
   35.16578        1.0913619E-17
   35.29262        1.0913665E-17
   35.41946        1.0913721E-17
   35.54631        1.0913788E-17
   35.67315        1.0913861E-17
   35.80000        1.0913938E-17
   35.92684        1.0914014E-17
   36.05368        1.0914087E-17
   36.18052        1.0914152E-17
   36.30737        1.0914208E-17
   36.43421        1.0914256E-17
   36.56105        1.0914294E-17
   36.68790        1.0914326E-17
   36.81474        1.0914351E-17
   36.94159        1.0914374E-17
   37.06843        1.0914398E-17
   37.19527        1.0914425E-17
   37.32212        1.0914456E-17
   37.44896        1.0914493E-17
   37.57581        1.0914537E-17
   37.70265        1.0914587E-17
   37.82949        1.0914642E-17
   37.95634        1.0914699E-17
   38.08318        1.0914756E-17
   38.21002        1.0914813E-17
   38.33687        1.0914865E-17
   38.46371        1.0914911E-17
   38.59055        1.0914952E-17
   38.71740        1.0914985E-17
   38.84424        1.0915012E-17
   38.97108        1.0915034E-17
   39.09793        1.0915055E-17
   39.22477        1.0915075E-17
   39.35162        1.0915098E-17
   39.47846        1.0915127E-17
   39.60530        1.0915164E-17
   39.73215        1.0915211E-17
   39.85899        1.0915266E-17
   39.98583        1.0915328E-17
   40.11268        1.0915396E-17
   40.23952        1.0915465E-17
   40.36636        1.0915532E-17
   40.49321        1.0915592E-17
   40.62005        1.0915642E-17
   40.74689        1.0915681E-17
   40.87374        1.0915707E-17
   41.00058        1.0915720E-17
   41.12743        1.0915724E-17
   41.25427        1.0915719E-17
   41.38111        1.0915709E-17
   41.50796        1.0915701E-17
   41.63480        1.0915697E-17
   41.76165        1.0915699E-17
   41.88849        1.0915709E-17
   42.01533        1.0915730E-17
   42.14218        1.0915760E-17
   42.26902        1.0915798E-17
   42.39586        1.0915841E-17
   42.52271        1.0915886E-17
   42.64955        1.0915932E-17
   42.77639        1.0915974E-17
   42.90324        1.0916012E-17
   43.03008        1.0916045E-17
   43.15693        1.0916072E-17
   43.28377        1.0916092E-17
   43.41061        1.0916108E-17
   43.53746        1.0916123E-17
   43.66430        1.0916138E-17
   43.79114        1.0916154E-17
   43.91799        1.0916176E-17
   44.04483        1.0916204E-17
   44.17167        1.0916239E-17
   44.29852        1.0916281E-17
   44.42536        1.0916330E-17
   44.55220        1.0916384E-17
   44.67905        1.0916442E-17
   44.80589        1.0916499E-17
   44.93274        1.0916554E-17
   45.05958        1.0916604E-17
   45.18642        1.0916645E-17
   45.31327        1.0916678E-17
   45.44011        1.0916701E-17
   45.56696        1.0916716E-17
   45.69380        1.0916724E-17
   45.82064        1.0916729E-17
   45.94748        1.0916732E-17
   46.07433        1.0916738E-17
   46.20117        1.0916751E-17
   46.32801        1.0916773E-17
   46.45486        1.0916805E-17
   46.58170        1.0916848E-17
   46.70855        1.0916900E-17
   46.83539        1.0916958E-17
   46.96223        1.0917021E-17
   47.08908        1.0917083E-17
   47.21592        1.0917142E-17
   47.34277        1.0917196E-17
   47.46961        1.0917243E-17
   47.59645        1.0917283E-17
   47.72330        1.0917316E-17
   47.85014        1.0917344E-17
   47.97698        1.0917370E-17
   48.10383        1.0917398E-17
   48.23067        1.0917429E-17
   48.35751        1.0917466E-17
   48.48436        1.0917511E-17
   48.61120        1.0917566E-17
   48.73804        1.0917628E-17
   48.86489        1.0917696E-17
   48.99173        1.0917768E-17
   49.11858        1.0917841E-17
   49.24542        1.0917911E-17
   49.37226        1.0917976E-17
   49.49911        1.0918031E-17
   49.62595        1.0918075E-17
   49.75279        1.0918107E-17
   49.87964        1.0918126E-17
   50.00648        1.0918134E-17
   50.13332        1.0918133E-17
   50.26017        1.0918126E-17
   50.38701        1.0918117E-17
   50.51385        1.0918109E-17
   50.64070        1.0918106E-17
   50.76754        1.0918110E-17
   50.89439        1.0918123E-17
   51.02123        1.0918145E-17
   51.14808        1.0918174E-17
   51.27492        1.0918210E-17
   51.40176        1.0918248E-17
   51.52861        1.0918284E-17
   51.65545        1.0918317E-17
   51.78229        1.0918341E-17
   51.90914        1.0918355E-17
   52.03598        1.0918360E-17
   52.16282        1.0918356E-17
   52.28967        1.0918344E-17
   52.41651        1.0918330E-17
   52.54335        1.0918317E-17
   52.67020        1.0918308E-17
   52.79704        1.0918309E-17
   52.92389        1.0918323E-17
   53.05073        1.0918349E-17
   53.17757        1.0918390E-17
   53.30442        1.0918443E-17
   53.43126        1.0918505E-17
   53.55810        1.0918574E-17
   53.68495        1.0918643E-17
   53.81179        1.0918710E-17
   53.93863        1.0918772E-17
   54.06548        1.0918825E-17
   54.19232        1.0918869E-17
   54.31916        1.0918905E-17
   54.44601        1.0918932E-17
   54.57285        1.0918954E-17
   54.69970        1.0918973E-17
   54.82654        1.0918992E-17
   54.95338        1.0919015E-17
   55.08023        1.0919042E-17
   55.20707        1.0919075E-17
   55.33392        1.0919114E-17
   55.46076        1.0919157E-17
   55.58760        1.0919202E-17
   55.71444        1.0919246E-17
   55.84129        1.0919283E-17
   55.96813        1.0919311E-17
   56.09497        1.0919324E-17
   56.22182        1.0919318E-17
   56.34866        1.0919289E-17
   56.47551        1.0919237E-17
   56.60235        1.0919158E-17
   56.72919        1.0919053E-17
   56.85604        1.0918925E-17
   56.98288        1.0918775E-17
   57.10973        1.0918606E-17
   57.23657        1.0918423E-17
   57.36341        1.0918227E-17
   57.49026        1.0918022E-17
   57.61710        1.0917810E-17
   57.74394        1.0917589E-17
   57.87079        1.0917360E-17
   57.99763        1.0917120E-17
   58.12447        1.0916868E-17
   58.25132        1.0916599E-17
   58.37816        1.0916312E-17
   58.50500        1.0916006E-17
   58.63185        1.0915676E-17
   58.75869        1.0915326E-17
   58.88554        1.0914956E-17
   59.01238        1.0914566E-17
   59.13923        1.0914162E-17
   59.26607        1.0913745E-17
   59.39291        1.0913318E-17
   59.51975        1.0912885E-17
   59.64660        1.0912446E-17
   59.77344        1.0912002E-17
   59.90028        1.0911553E-17
   60.02713        1.0911095E-17
   60.15397        1.0910630E-17
   60.28082        1.0910152E-17
   60.40766        1.0909661E-17
   60.53450        1.0909155E-17
   60.66135        1.0908631E-17
   60.78819        1.0908089E-17
   60.91504        1.0907530E-17
   61.04188        1.0906954E-17
   61.16872        1.0906364E-17
   61.29557        1.0905762E-17
   61.42241        1.0905152E-17
   61.54925        1.0904537E-17
   61.67610        1.0903920E-17
   61.80294        1.0903303E-17
   61.92978        1.0902691E-17
   62.05663        1.0902084E-17
   62.18347        1.0901482E-17
   62.31031        1.0900884E-17
   62.43716        1.0900288E-17
   62.56400        1.0899692E-17
   62.69085        1.0899092E-17
   62.81769        1.0898486E-17
   62.94453        1.0897871E-17
   63.07138        1.0897248E-17
   63.19822        1.0896617E-17
   63.32506        1.0895980E-17
   63.45191        1.0895340E-17
   63.57875        1.0894701E-17
   63.70559        1.0894067E-17
   63.83244        1.0893445E-17
   63.95928        1.0892837E-17
   64.08613        1.0892247E-17
   64.21297        1.0891676E-17
   64.33981        1.0891122E-17
   64.46666        1.0890585E-17
   64.59350        1.0890060E-17
   64.72034        1.0889542E-17
   64.84719        1.0889026E-17
   64.97403        1.0888508E-17
   65.10088        1.0887983E-17
   65.22771        1.0887449E-17
   65.35456        1.0886904E-17
   65.48141        1.0886349E-17
   65.60825        1.0885787E-17
   65.73509        1.0885220E-17
   65.86194        1.0884651E-17
   65.98878        1.0884086E-17
   66.11562        1.0883527E-17
   66.24247        1.0882976E-17
   66.36931        1.0882434E-17
   66.49615        1.0881902E-17
   66.62300        1.0881376E-17
   66.74984        1.0880855E-17
   66.87669        1.0880332E-17
   67.00353        1.0879805E-17
   67.13037        1.0879267E-17
   67.25722        1.0878715E-17
   67.38406        1.0878148E-17
   67.51090        1.0877562E-17
   67.63775        1.0876959E-17
   67.76459        1.0876341E-17
   67.89143        1.0875712E-17
   68.01828        1.0875076E-17
   68.14512        1.0874438E-17
   68.27197        1.0873804E-17
   68.39881        1.0873177E-17
   68.52565        1.0872563E-17
   68.65250        1.0871961E-17
   68.77934        1.0871370E-17
   68.90618        1.0870789E-17
   69.03303        1.0870215E-17
   69.15987        1.0869640E-17
   69.28671        1.0869063E-17
   69.41356        1.0868477E-17
   69.54041        1.0867881E-17
   69.66724        1.0867271E-17
   69.79409        1.0866649E-17
   69.92093        1.0866014E-17
   70.04778        1.0865371E-17
   70.17462        1.0864722E-17
   70.30146        1.0864074E-17
   70.42831        1.0863428E-17
   70.55515        1.0862787E-17
   70.68199        1.0862154E-17
   70.80884        1.0861528E-17
   70.93568        1.0860907E-17
   71.06252        1.0860288E-17
   71.18937        1.0859665E-17
   71.31622        1.0859034E-17
   71.44305        1.0858390E-17
   71.56990        1.0857730E-17
   71.69675        1.0857050E-17
   71.82359        1.0856349E-17
   71.95043        1.0855629E-17
   72.07728        1.0854889E-17
   72.20412        1.0854135E-17
   72.33096        1.0853370E-17
   72.45780        1.0852599E-17
   72.58465        1.0851825E-17
   72.71149        1.0851054E-17
   72.83833        1.0850286E-17
   72.96518        1.0849523E-17
   73.09203        1.0848766E-17
   73.21886        1.0848011E-17
   73.34571        1.0847259E-17
   73.47256        1.0846505E-17
   73.59940        1.0845749E-17
   73.72624        1.0844988E-17
   73.85309        1.0844220E-17
   73.97993        1.0843448E-17
   74.10677        1.0842672E-17
   74.23362        1.0841896E-17
   74.36046        1.0841123E-17
   74.48730        1.0840358E-17
   74.61415        1.0839606E-17
   74.74099        1.0838869E-17
   74.86784        1.0838154E-17
   74.99467        1.0837459E-17
   75.12152        1.0836786E-17
   75.24837        1.0836133E-17
   75.37521        1.0835498E-17
   75.50205        1.0834877E-17
   75.62890        1.0834268E-17
   75.75574        1.0833665E-17
   75.88258        1.0833066E-17
   76.00943        1.0832467E-17
   76.13627        1.0831869E-17
   76.26311        1.0831273E-17
   76.38996        1.0830679E-17
   76.51680        1.0830091E-17
   76.64365        1.0829514E-17
   76.77049        1.0828951E-17
   76.89733        1.0828406E-17
   77.02418        1.0827879E-17
   77.15102        1.0827373E-17
   77.27786        1.0826888E-17
   77.40471        1.0826422E-17
   77.53155        1.0825971E-17
   77.65839        1.0825530E-17
   77.78524        1.0825097E-17
   77.91208        1.0824665E-17
   78.03893        1.0824232E-17
   78.16577        1.0823796E-17
   78.29261        1.0823356E-17
   78.41946        1.0822912E-17
   78.54630        1.0822466E-17
   78.67314        1.0822022E-17
   78.79999        1.0821584E-17
   78.92683        1.0821154E-17
   79.05367        1.0820737E-17
   79.18052        1.0820334E-17
   79.30737        1.0819948E-17
   79.43420        1.0819578E-17
   79.56105        1.0819223E-17
   79.68790        1.0818879E-17
   79.81474        1.0818543E-17
   79.94158        1.0818210E-17
   80.06842        1.0817875E-17
   80.19527        1.0817534E-17
   80.32211        1.0817184E-17
   80.44895        1.0816823E-17
   80.57580        1.0816451E-17
   80.70264        1.0816067E-17
   80.82948        1.0815675E-17
   80.95633        1.0815277E-17
   81.08318        1.0814878E-17
   81.21001        1.0814478E-17
   81.33686        1.0814083E-17
   81.46371        1.0813694E-17
   81.59055        1.0813312E-17
   81.71739        1.0812936E-17
   81.84424        1.0812565E-17
   81.97108        1.0812196E-17
   82.09792        1.0811828E-17
   82.22476        1.0811457E-17
   82.35161        1.0811079E-17
   82.47845        1.0810693E-17
   82.60529        1.0810301E-17
   82.73214        1.0809901E-17
   82.85899        1.0809498E-17
   82.98582        1.0809093E-17
   83.11267        1.0808692E-17
   83.23952        1.0808300E-17
   83.36636        1.0807920E-17
   83.49320        1.0807556E-17
   83.62005        1.0807210E-17
   83.74689        1.0806882E-17
   83.87373        1.0806573E-17
   84.00058        1.0806279E-17
   84.12742        1.0805997E-17
   84.25426        1.0805725E-17
   84.38111        1.0805456E-17
   84.50795        1.0805189E-17
   84.63480        1.0804919E-17
   84.76163        1.0804646E-17
   84.88848        1.0804367E-17
   85.01533        1.0804085E-17
   85.14217        1.0803800E-17
   85.26901        1.0803516E-17
   85.39586        1.0803234E-17
   85.52270        1.0802959E-17
   85.64954        1.0802691E-17
   85.77639        1.0802432E-17
   85.90323        1.0802182E-17
   86.03008        1.0801941E-17
   86.15692        1.0801704E-17
   86.28376        1.0801471E-17
   86.41061        1.0801237E-17
   86.53745        1.0800999E-17
   86.66429        1.0800752E-17
   86.79114        1.0800495E-17
   86.91798        1.0800224E-17
   87.04482        1.0799940E-17
   87.17167        1.0799642E-17
   87.29851        1.0799333E-17
   87.42535        1.0799013E-17
   87.55220        1.0798688E-17
   87.67904        1.0798360E-17
   87.80589        1.0798031E-17
   87.93273        1.0797705E-17
   88.05957        1.0797382E-17
   88.18642        1.0797064E-17
   88.31326        1.0796749E-17
   88.44010        1.0796437E-17
   88.56695        1.0796128E-17
   88.69379        1.0795818E-17
   88.82063        1.0795506E-17
   88.94748        1.0795193E-17
   89.07433        1.0794877E-17
   89.20116        1.0794562E-17
   89.32801        1.0794250E-17
   89.45486        1.0793945E-17
   89.58170        1.0793650E-17
   89.70854        1.0793368E-17
   89.83538        1.0793101E-17
   89.96223        1.0792854E-17
   90.08907        1.0792625E-17
   90.21591        1.0792414E-17
   90.34276        1.0792220E-17
   90.46960        1.0792037E-17
   90.59644        1.0791863E-17
   90.72329        1.0791693E-17
   90.85014        1.0791521E-17
   90.97697        1.0791344E-17
   91.10382        1.0791158E-17
   91.23067        1.0790959E-17
   91.35751        1.0790748E-17
   91.48435        1.0790524E-17
   91.61120        1.0790288E-17
   91.73804        1.0790041E-17
   91.86488        1.0789785E-17
   91.99173        1.0789523E-17
   92.11857        1.0789257E-17
   92.24541        1.0788986E-17
   92.37225        1.0788713E-17
   92.49910        1.0788436E-17
   92.62595        1.0788153E-17
   92.75278        1.0787863E-17
   92.87963        1.0787563E-17
   93.00648        1.0787251E-17
   93.13332        1.0786926E-17
   93.26016        1.0786587E-17
   93.38701        1.0786235E-17
   93.51385        1.0785871E-17
   93.64069        1.0785499E-17
   93.76754        1.0785122E-17
   93.89438        1.0784747E-17
   94.02122        1.0784376E-17
   94.14807        1.0784015E-17
   94.27491        1.0783666E-17
   94.40176        1.0783332E-17
   94.52859        1.0783013E-17
   94.65544        1.0782709E-17
   94.78229        1.0782415E-17
   94.90913        1.0782130E-17
   95.03597        1.0781849E-17
   95.16282        1.0781568E-17
   95.28966        1.0781283E-17
   95.41650        1.0780991E-17
   95.54335        1.0780690E-17
   95.67019        1.0780379E-17
   95.79704        1.0780059E-17
   95.92388        1.0779733E-17
   96.05072        1.0779402E-17
   96.17757        1.0779069E-17
   96.30441        1.0778735E-17
   96.43125        1.0778401E-17
   96.55810        1.0778068E-17
   96.68494        1.0777737E-17
   96.81178        1.0777407E-17
   96.93863        1.0777073E-17
   97.06547        1.0776734E-17
   97.19231        1.0776387E-17
   97.31916        1.0776029E-17
   97.44600        1.0775659E-17
   97.57285        1.0775274E-17
   97.69969        1.0774876E-17
   97.82653        1.0774466E-17
   97.95338        1.0774045E-17
   98.08022        1.0773617E-17
   98.20706        1.0773186E-17
   98.33391        1.0772756E-17
   98.46075        1.0772328E-17
   98.58759        1.0771905E-17
   98.71444        1.0771490E-17
   98.84129        1.0771082E-17
   98.96812        1.0770681E-17
   99.09497        1.0770284E-17
   99.22182        1.0769892E-17
   99.34866        1.0769499E-17
   99.47550        1.0769105E-17
   99.60234        1.0768707E-17
   99.72919        1.0768304E-17
   99.85603        1.0767898E-17
   99.98287        1.0767489E-17
   100.1097        1.0767077E-17
   100.2366        1.0766666E-17
   100.3634        1.0766259E-17
   100.4902        1.0765857E-17
   100.6171        1.0765462E-17
   100.7439        1.0765075E-17
   100.8708        1.0764695E-17
   100.9976        1.0764321E-17
   101.1245        1.0763952E-17
   101.2513        1.0763581E-17
   101.3782        1.0763209E-17
   101.5050        1.0762830E-17
   101.6318        1.0762441E-17
   101.7587        1.0762042E-17
   101.8855        1.0761632E-17
   102.0124        1.0761210E-17
   102.1392        1.0760779E-17
   102.2661        1.0760340E-17
   102.3929        1.0759896E-17
   102.5197        1.0759451E-17
   102.6466        1.0759006E-17
   102.7734        1.0758564E-17
   102.9003        1.0758127E-17
   103.0271        1.0757692E-17
   103.1540        1.0757260E-17
   103.2808        1.0756829E-17
   103.4077        1.0756396E-17
   103.5345        1.0755959E-17
   103.6613        1.0755514E-17
   103.7882        1.0755060E-17
   103.9150        1.0754596E-17
   104.0419        1.0754120E-17
   104.1687        1.0753632E-17
   104.2956        1.0753135E-17
   104.4224        1.0752630E-17
   104.5492        1.0752120E-17
   104.6761        1.0751605E-17
   104.8029        1.0751090E-17
   104.9298        1.0750574E-17
   105.0566        1.0750057E-17
   105.1835        1.0749540E-17
   105.3103        1.0749021E-17
   105.4371        1.0748498E-17
   105.5640        1.0747970E-17
   105.6908        1.0747431E-17
   105.8177        1.0746884E-17
   105.9445        1.0746327E-17
   106.0714        1.0745760E-17
   106.1982        1.0745185E-17
   106.3251        1.0744605E-17
   106.4519        1.0744025E-17
   106.5787        1.0743447E-17
   106.7056        1.0742877E-17
   106.8324        1.0742319E-17
   106.9593        1.0741777E-17
   107.0861        1.0741252E-17
   107.2130        1.0740746E-17
   107.3398        1.0740259E-17
   107.4667        1.0739790E-17
   107.5935        1.0739336E-17
   107.7203        1.0738895E-17
   107.8472        1.0738465E-17
   107.9740        1.0738040E-17