  -7.200000        9.3740439E-19
  -7.073156        9.3740046E-19
  -6.946313        9.3739240E-19
  -6.819469        9.3738020E-19
  -6.692626        9.3736407E-19
  -6.565782        9.3734515E-19
  -6.438938        9.3732333E-19
  -6.312095        9.3729882E-19
  -6.185251        9.3727256E-19
  -6.058407        9.3724547E-19
  -5.931563        9.3721755E-19
  -5.804720        9.3718953E-19
  -5.677876        9.3716265E-19
  -5.551033        9.3713680E-19
  -5.424189        9.3711271E-19
  -5.297346        9.3709079E-19
  -5.170502        9.3707166E-19
  -5.043658        9.3705605E-19
  -4.916814        9.3704323E-19
  -4.789971        9.3703392E-19
  -4.663127        9.3702813E-19
  -4.536283        9.3702555E-19
  -4.409440        9.3702586E-19
  -4.282596        9.3702916E-19
  -4.155753        9.3703413E-19
  -4.028909        9.3704033E-19
  -3.902065        9.3704726E-19
  -3.775222        9.3705512E-19
  -3.648378        9.3706132E-19
  -3.521534        9.3706690E-19
  -3.394691        9.3707011E-19
  -3.267847        9.3707021E-19
  -3.141004        9.3706659E-19
  -3.014160        9.3705874E-19
  -2.887316        9.3704571E-19
  -2.760473        9.3702844E-19
  -2.633629        9.3700611E-19
  -2.506785        9.3697881E-19
  -2.379942        9.3694665E-19
  -2.253098        9.3690995E-19
  -2.126254        9.3687035E-19
  -1.999411        9.3682785E-19
  -1.872567        9.3678308E-19
  -1.745723        9.3673789E-19
  -1.618880        9.3669240E-19
  -1.492036        9.3664814E-19
  -1.365193        9.3660585E-19
  -1.238349        9.3656667E-19
  -1.111505        9.3653265E-19
 -0.9846617        9.3650370E-19
 -0.8578180        9.3648095E-19
 -0.7309744        9.3646472E-19
 -0.6041307        9.3645551E-19
 -0.4772871        9.3645345E-19
 -0.3504435        9.3645779E-19
 -0.2235998        9.3646906E-19
 -9.6756198E-02    9.3648653E-19
  3.0087441E-02    9.3650990E-19
  0.1569311        9.3653761E-19
  0.2837747        9.3656915E-19
  0.4106184        9.3660337E-19
  0.5374620        9.3663873E-19
  0.6643056        9.3667430E-19
  0.7911493        9.3670894E-19
  0.9179929        9.3674110E-19
   1.044837        9.3677026E-19
   1.171680        9.3679538E-19
   1.298524        9.3681575E-19
   1.425367        9.3683012E-19
   1.552211        9.3683912E-19
   1.679055        9.3684263E-19
   1.805898        9.3684015E-19
   1.932742        9.3683188E-19
   2.059586        9.3681844E-19
   2.186429        9.3680024E-19
   2.313273        9.3677873E-19
   2.440117        9.3675475E-19
   2.566960        9.3672921E-19
   2.693804        9.3670305E-19
   2.820647        9.3667772E-19
   2.947491        9.3665404E-19
   3.074335        9.3663263E-19
   3.201178        9.3661485E-19
   3.328022        9.3660130E-19
   3.454866        9.3659221E-19
   3.581709        9.3658797E-19
   3.708553        9.3658900E-19
   3.835397        9.3659520E-19
   3.962240        9.3660761E-19
   4.089084        9.3662436E-19
   4.215928        9.3664649E-19
   4.342771        9.3667275E-19
   4.469615        9.3670232E-19
   4.596458        9.3673479E-19
   4.723302        9.3676922E-19
   4.850146        9.3680469E-19
   4.976989        9.3684046E-19
   5.103833        9.3687500E-19
   5.230677        9.3690778E-19
   5.357520        9.3693786E-19
   5.484364        9.3696475E-19
   5.611207        9.3698698E-19
   5.738051        9.3700456E-19
   5.864895        9.3701665E-19
   5.991738        9.3702317E-19
   6.118582        9.3702348E-19
   6.245426        9.3701841E-19
   6.372270        9.3700673E-19
   6.499113        9.3698956E-19
   6.625957        9.3696795E-19
   6.752800        9.3694159E-19
   6.879644        9.3691170E-19
   7.006487        9.3687934E-19
   7.133331        9.3684532E-19
   7.260175        9.3681079E-19
   7.387019        9.3677656E-19
   7.513862        9.3674358E-19
   7.640706        9.3671297E-19
   7.767550        9.3668557E-19
   7.894393        9.3666221E-19
   8.021236        9.3664328E-19
   8.148081        9.3662943E-19
   8.274924        9.3662116E-19
   8.401768        9.3661816E-19
   8.528611        9.3662074E-19
   8.655455        9.3662850E-19
   8.782298        9.3664060E-19
   8.909142        9.3665693E-19
   9.035986        9.3667699E-19
   9.162829        9.3669984E-19
   9.289673        9.3672362E-19
   9.416516        9.3674782E-19
   9.543361        9.3677129E-19
   9.670204        9.3679280E-19
   9.797048        9.3681182E-19
   9.923891        9.3682650E-19
   10.05073        9.3683602E-19
   10.17758        9.3683995E-19
   10.30442        9.3683715E-19
   10.43127        9.3682795E-19
   10.55811        9.3681182E-19
   10.68495        9.3678845E-19
   10.81180        9.3675868E-19
   10.93864        9.3672228E-19
   11.06548        9.3668040E-19
   11.19233        9.3663377E-19
   11.31917        9.3658331E-19
   11.44602        9.3653017E-19
   11.57286        9.3647516E-19
   11.69970        9.3641912E-19
   11.82655        9.3636328E-19
   11.95339        9.3630797E-19
   12.08023        9.3625472E-19
   12.20708        9.3620364E-19
   12.33392        9.3615514E-19
   12.46076        9.3610965E-19
   12.58761        9.3606767E-19
   12.71445        9.3602931E-19
   12.84130        9.3599426E-19
   12.96814        9.3596210E-19
   13.09498        9.3593336E-19
   13.22183        9.3590740E-19
   13.34867        9.3588373E-19
   13.47551        9.3586118E-19
   13.60236        9.3583999E-19
   13.72920        9.3582024E-19
   13.85604        9.3580018E-19
   13.98289        9.3577960E-19
   14.10973        9.3575923E-19
   14.23658        9.3573793E-19
   14.36342        9.3571539E-19
   14.49026        9.3569151E-19
   14.61711        9.3566618E-19
   14.74395        9.3563940E-19
   14.87079        9.3561158E-19
   14.99764        9.3558294E-19
   15.12448        9.3555327E-19
   15.25132        9.3552276E-19
   15.37817        9.3549175E-19
   15.50501        9.3546104E-19
   15.63186        9.3543002E-19
   15.75870        9.3539931E-19
   15.88554        9.3536932E-19
   16.01239        9.3534016E-19
   16.13923        9.3531163E-19
   16.26607        9.3528412E-19
   16.39292        9.3525734E-19
   16.51976        9.3523180E-19
   16.64660        9.3520647E-19
   16.77345        9.3518238E-19
   16.90029        9.3515932E-19
   17.02714        9.3513699E-19
   17.15398        9.3511600E-19
   17.28082        9.3509615E-19
   17.40767        9.3507691E-19
   17.53451        9.3505882E-19
   17.66135        9.3504186E-19
   17.78820        9.3502604E-19
   17.91504        9.3501064E-19
   18.04188        9.3499626E-19
   18.16873        9.3498241E-19
   18.29557        9.3496897E-19
   18.42241        9.3495542E-19
   18.54926        9.3494188E-19
   18.67610        9.3492730E-19
   18.80295        9.3491158E-19
   18.92979        9.3489400E-19
   19.05663        9.3487415E-19
   19.18348        9.3485161E-19
   19.31032        9.3482638E-19
   19.43716        9.3479753E-19
   19.56401        9.3476589E-19
   19.69085        9.3473095E-19
   19.81770        9.3469352E-19
   19.94454        9.3465433E-19
   20.07138        9.3461287E-19
   20.19823        9.3457058E-19
   20.32507        9.3452798E-19
   20.45191        9.3448579E-19
   20.57876        9.3444547E-19
   20.70560        9.3440731E-19
   20.83245        9.3437298E-19
   20.95929        9.3434279E-19
   21.08613        9.3431684E-19
   21.21297        9.3429647E-19
   21.33982        9.3428179E-19
   21.46666        9.3427362E-19
   21.59351        9.3427145E-19
   21.72035        9.3427517E-19
   21.84719        9.3428468E-19
   21.97404        9.3429905E-19
   22.10088        9.3431829E-19
   22.22772        9.3434062E-19
   22.35457        9.3436513E-19
   22.48141        9.3439046E-19
   22.60826        9.3441548E-19
   22.73510        9.3443926E-19
   22.86194        9.3446046E-19
   22.98879        9.3447783E-19
   23.11563        9.3449013E-19
   23.24247        9.3449592E-19
   23.36932        9.3449551E-19
   23.49616        9.3448744E-19
   23.62300        9.3447235E-19
   23.74985        9.3444960E-19
   23.87669        9.3441993E-19
   24.00353        9.3438415E-19
   24.13038        9.3434196E-19
   24.25722        9.3429554E-19
   24.38407        9.3424498E-19
   24.51091        9.3419204E-19
   24.63775        9.3413806E-19
   24.76460        9.3408430E-19
   24.89144        9.3403291E-19
   25.01828        9.3398462E-19
   25.14513        9.3394089E-19
   25.27197        9.3390294E-19
   25.39882        9.3387140E-19
   25.52566        9.3384731E-19
   25.65250        9.3383066E-19
   25.77935        9.3382146E-19
   25.90619        9.3382043E-19
   26.03303        9.3382694E-19
   26.15988        9.3383956E-19
   26.28672        9.3385806E-19
   26.41356        9.3388029E-19
   26.54041        9.3390604E-19
   26.66725        9.3393385E-19
   26.79410        9.3396167E-19
   26.92094        9.3398855E-19
   27.04778        9.3401347E-19
   27.17463        9.3403446E-19
   27.30147        9.3405100E-19
   27.42831        9.3406248E-19
   27.55516        9.3406848E-19
   27.68200        9.3406910E-19
   27.80884        9.3406465E-19
   27.93569        9.3405555E-19
   28.06253        9.3404242E-19
   28.18937        9.3402608E-19
   28.31622        9.3400809E-19
   28.44306        9.3398948E-19
   28.56991        9.3397149E-19
   28.69675        9.3395495E-19
   28.82359        9.3394089E-19
   28.95044        9.3393024E-19
   29.07728        9.3392351E-19
   29.20412        9.3392145E-19
   29.33097        9.3392382E-19
   29.45781        9.3393044E-19
   29.58466        9.3394151E-19
   29.71150        9.3395557E-19
   29.83834        9.3397242E-19
   29.96519        9.3399165E-19
   30.09203        9.3401182E-19
   30.21887        9.3403187E-19
   30.34572        9.3405131E-19
   30.47256        9.3407024E-19
   30.59941        9.3408688E-19
   30.72625        9.3410125E-19
   30.85309        9.3411263E-19
   30.97993        9.3412111E-19
   31.10678        9.3412648E-19
   31.23362        9.3412917E-19
   31.36047        9.3412917E-19
   31.48731        9.3412690E-19
   31.61415        9.3412286E-19
   31.74100        9.3411749E-19
   31.86784        9.3411128E-19
   31.99468        9.3410518E-19
   32.12153        9.3409908E-19
   32.24837        9.3409391E-19
   32.37521        9.3408967E-19
   32.50206        9.3408606E-19
   32.62890        9.3408471E-19
   32.75574        9.3408533E-19
   32.88259        9.3408781E-19
   33.00943        9.3409195E-19
   33.13628        9.3409826E-19
   33.26312        9.3410601E-19
   33.38997        9.3411501E-19
   33.51681        9.3412545E-19
   33.64365        9.3413713E-19
   33.77050        9.3415006E-19
   33.89734        9.3416371E-19
   34.02418        9.3417725E-19
   34.15103        9.3419121E-19
   34.27787        9.3420538E-19
   34.40471        9.3421892E-19
   34.53156        9.3423174E-19
   34.65840        9.3424343E-19
   34.78524        9.3425356E-19
   34.91209        9.3426224E-19
   35.03893        9.3426897E-19
   35.16578        9.3427269E-19
   35.29262        9.3427403E-19
   35.41946        9.3427238E-19
   35.54631        9.3426783E-19
   35.67315        9.3426007E-19
   35.80000        9.3424922E-19
   35.92684        9.3423588E-19
   36.05368        9.3421913E-19
   36.18052        9.3420000E-19
   36.30737        9.3417849E-19
   36.43421        9.3415512E-19
   36.56105        9.3413062E-19
   36.68790        9.3410591E-19
   36.81474        9.3408151E-19
   36.94159        9.3405772E-19
   37.06843        9.3403591E-19
   37.19527        9.3401678E-19
   37.32212        9.3399993E-19
   37.44896        9.3398669E-19
   37.57581        9.3397645E-19
   37.70265        9.3397004E-19
   37.82949        9.3396746E-19
   37.95634        9.3396839E-19
   38.08318        9.3397221E-19
   38.21002        9.3397863E-19
   38.33687        9.3398679E-19
   38.46371        9.3399589E-19
   38.59055        9.3400582E-19
   38.71740        9.3401512E-19
   38.84424        9.3402340E-19
   38.97108        9.3402929E-19
   39.09793        9.3403250E-19
   39.22477        9.3403291E-19
   39.35162        9.3402991E-19
   39.47846        9.3402278E-19
   39.60530        9.3401130E-19
   39.73215        9.3399527E-19
   39.85899        9.3397490E-19
   39.98583        9.3395122E-19
   40.11268        9.3392341E-19
   40.23952        9.3389270E-19
   40.36636        9.3385930E-19
   40.49321        9.3382405E-19
   40.62005        9.3378786E-19
   40.74689        9.3375115E-19
   40.87374        9.3371506E-19
   41.00058        9.3367970E-19
   41.12743        9.3364672E-19
   41.25427        9.3361622E-19
   41.38111        9.3358933E-19
   41.50796        9.3356648E-19
   41.63480        9.3354756E-19
   41.76165        9.3353226E-19
   41.88849        9.3352130E-19
   42.01533        9.3351416E-19
   42.14218        9.3351065E-19
   42.26902        9.3351054E-19
   42.39586        9.3351251E-19
   42.52271        9.3351675E-19
   42.64955        9.3352244E-19
   42.77639        9.3352916E-19
   42.90324        9.3353557E-19
   43.03008        9.3354125E-19
   43.15693        9.3354601E-19
   43.28377        9.3354880E-19
   43.41061        9.3354942E-19
   43.53746        9.3354746E-19
   43.66430        9.3354332E-19
   43.79114        9.3353577E-19
   43.91799        9.3352595E-19
   44.04483        9.3351292E-19
   44.17167        9.3349752E-19
   44.29852        9.3347994E-19
   44.42536        9.3346040E-19
   44.55220        9.3343899E-19
   44.67905        9.3341604E-19
   44.80589        9.3339205E-19
   44.93274        9.3336765E-19
   45.05958        9.3334356E-19
   45.18642        9.3331967E-19
   45.31327        9.3329589E-19
   45.44011        9.3327407E-19
   45.56696        9.3325402E-19
   45.69380        9.3323633E-19
   45.82064        9.3322175E-19
   45.94748        9.3321142E-19
   46.07433        9.3320428E-19
   46.20117        9.3320190E-19
   46.32801        9.3320335E-19
   46.45486        9.3320862E-19
   46.58170        9.3321752E-19
   46.70855        9.3322992E-19
   46.83539        9.3324409E-19
   46.96223        9.3326012E-19
   47.08908        9.3327707E-19
   47.21592        9.3329403E-19
   47.34277        9.3330902E-19
   47.46961        9.3332205E-19
   47.59645        9.3333249E-19
   47.72330        9.3333932E-19
   47.85014        9.3334211E-19
   47.97698        9.3334066E-19
   48.10383        9.3333549E-19
   48.23067        9.3332660E-19
   48.35751        9.3331419E-19
   48.48436        9.3329941E-19
   48.61120        9.3328255E-19
   48.73804        9.3326466E-19
   48.86489        9.3324636E-19
   48.99173        9.3322858E-19
   49.11858        9.3321162E-19
   49.24542        9.3319642E-19
   49.37226        9.3318308E-19
   49.49911        9.3317243E-19
   49.62595        9.3316365E-19
   49.75279        9.3315723E-19
   49.87964        9.3315320E-19
   50.00648        9.3315093E-19
   50.13332        9.3315000E-19
   50.26017        9.3315010E-19
   50.38701        9.3315082E-19
   50.51385        9.3315217E-19
   50.64070        9.3315351E-19
   50.76754        9.3315475E-19
   50.89439        9.3315599E-19
   51.02123        9.3315703E-19
   51.14808        9.3315806E-19
   51.27492        9.3315951E-19
   51.40176        9.3316178E-19
   51.52861        9.3316509E-19
   51.65545        9.3316954E-19
   51.78229        9.3317512E-19
   51.90914        9.3318195E-19
   52.03598        9.3319053E-19
   52.16282        9.3320004E-19
   52.28967        9.3321017E-19
   52.41651        9.3322124E-19
   52.54335        9.3323272E-19
   52.67020        9.3324388E-19
   52.79704        9.3325339E-19
   52.92389        9.3326218E-19
   53.05073        9.3326870E-19
   53.17757        9.3327335E-19
   53.30442        9.3327573E-19
   53.43126        9.3327563E-19
   53.55810        9.3327314E-19
   53.68495        9.3326828E-19
   53.81179        9.3326105E-19
   53.93863        9.3325195E-19
   54.06548        9.3324233E-19
   54.19232        9.3323199E-19
   54.31916        9.3322186E-19
   54.44601        9.3321276E-19
   54.57285        9.3320531E-19
   54.69970        9.3319942E-19
   54.82654        9.3319560E-19
   54.95338        9.3319518E-19
   55.08023        9.3319828E-19
   55.20707        9.3320490E-19
   55.33392        9.3321534E-19
   55.46076        9.3322889E-19
   55.58760        9.3324605E-19
   55.71444        9.3326622E-19
   55.84129        9.3328927E-19
   55.96813        9.3331461E-19
   56.09497        9.3334128E-19
   56.22182        9.3336889E-19
   56.34866        9.3339660E-19
   56.47551        9.3342297E-19
   56.60235        9.3344789E-19
   56.72919        9.3347032E-19
   56.85604        9.3348986E-19
   56.98288        9.3350558E-19
   57.10973        9.3351747E-19
   57.23657        9.3352585E-19
   57.36341        9.3353009E-19
   57.49026        9.3353050E-19
   57.61710        9.3352750E-19
   57.74394        9.3352140E-19
   57.87079        9.3351365E-19
   57.99763        9.3350413E-19
   58.12447        9.3349400E-19
   58.25132        9.3348428E-19
   58.37816        9.3347580E-19
   58.50500        9.3346898E-19
   58.63185        9.3346402E-19
   58.75869        9.3346122E-19
   58.88554        9.3346050E-19
   59.01238        9.3346184E-19
   59.13923        9.3346495E-19
   59.26607        9.3346991E-19
   59.39291        9.3347580E-19
   59.51975        9.3348232E-19
   59.64660        9.3349007E-19
   59.77344        9.3349783E-19
   59.90028        9.3350579E-19
   60.02713        9.3351365E-19
   60.15397        9.3352202E-19
   60.28082        9.3353071E-19
   60.40766        9.3354032E-19
   60.53450        9.3355056E-19
   60.66135        9.3356224E-19
   60.78819        9.3357527E-19
   60.91504        9.3358975E-19
   61.04188        9.3360608E-19
   61.16872        9.3362387E-19
   61.29557        9.3364248E-19
   61.42241        9.3366244E-19
   61.54925        9.3368239E-19
   61.67610        9.3370245E-19
   61.80294        9.3372148E-19
   61.92978        9.3373947E-19
   62.05663        9.3375549E-19
   62.18347        9.3376976E-19
   62.31031        9.3378155E-19
   62.43716        9.3379055E-19
   62.56400        9.3379737E-19
   62.69085        9.3380192E-19
   62.81769        9.3380461E-19
   62.94453        9.3380543E-19
   63.07138        9.3380533E-19
   63.19822        9.3380585E-19
   63.32506        9.3380636E-19
   63.45191        9.3380802E-19
   63.57875        9.3381081E-19
   63.70559        9.3381577E-19
   63.83244        9.3382249E-19
   63.95928        9.3383201E-19
   64.08613        9.3384338E-19
   64.21297        9.3385662E-19
   64.33981        9.3387130E-19
   64.46666        9.3388712E-19
   64.59350        9.3390335E-19
   64.72034        9.3391990E-19
   64.84719        9.3393561E-19
   64.97403        9.3395040E-19
   65.10088        9.3396405E-19
   65.22771        9.3397645E-19
   65.35456        9.3398721E-19
   65.48141        9.3399651E-19
   65.60825        9.3400416E-19
   65.73509        9.3401047E-19
   65.86194        9.3401585E-19
   65.98878        9.3402050E-19
   66.11562        9.3402402E-19
   66.24247        9.3402774E-19
   66.36931        9.3403156E-19
   66.49615        9.3403591E-19
   66.62300        9.3404108E-19
   66.74984        9.3404800E-19
   66.87669        9.3405690E-19
   67.00353        9.3406786E-19
   67.13037        9.3408151E-19
   67.25722        9.3409815E-19
   67.38406        9.3411842E-19
   67.51090        9.3414168E-19
   67.63775        9.3416836E-19
   67.76459        9.3419762E-19
   67.89143        9.3422957E-19
   68.01828        9.3426173E-19
   68.14512        9.3429502E-19
   68.27197        9.3432718E-19
   68.39881        9.3435685E-19
   68.52565        9.3438363E-19
   68.65250        9.3440607E-19
   68.77934        9.3442323E-19
   68.90618        9.3443440E-19
   69.03303        9.3443957E-19
   69.15987        9.3443905E-19
   69.28671        9.3443254E-19
   69.41356        9.3442148E-19
   69.54041        9.3440628E-19
   69.66724        9.3438860E-19
   69.79409        9.3436967E-19
   69.92093        9.3435065E-19
   70.04778        9.3433297E-19
   70.17462        9.3431818E-19
   70.30146        9.3430722E-19
   70.42831        9.3430030E-19
   70.55515        9.3429874E-19
   70.68199        9.3430247E-19
   70.80884        9.3431105E-19
   70.93568        9.3432449E-19
   71.06252        9.3434176E-19
   71.18937        9.3436275E-19
   71.31622        9.3438560E-19
   71.44305        9.3441000E-19
   71.56990        9.3443502E-19
   71.69675        9.3445984E-19
   71.82359        9.3448393E-19
   71.95043        9.3450678E-19
   72.07728        9.3452870E-19
   72.20412        9.3454907E-19
   72.33096        9.3456809E-19
   72.45780        9.3458629E-19
   72.58465        9.3460356E-19
   72.71149        9.3462041E-19
   72.83833        9.3463603E-19
   72.96518        9.3465112E-19
   73.09203        9.3466508E-19
   73.21886        9.3467790E-19
   73.34571        9.3468886E-19
   73.47256        9.3469724E-19
   73.59940        9.3470334E-19
   73.72624        9.3470592E-19
   73.85309        9.3470530E-19
   73.97993        9.3470065E-19
   74.10677        9.3469197E-19
   74.23362        9.3467976E-19
   74.36046        9.3466405E-19
   74.48730        9.3464513E-19
   74.61415        9.3462341E-19
   74.74099        9.3459973E-19
   74.86784        9.3457523E-19
   74.99467        9.3455083E-19
   75.12152        9.3452715E-19
   75.24837        9.3450492E-19
   75.37521        9.3448486E-19
   75.50205        9.3446749E-19
   75.62890        9.3445374E-19
   75.75574        9.3444464E-19
   75.88258        9.3443905E-19
   76.00943        9.3443864E-19
   76.13627        9.3444195E-19
   76.26311        9.3444919E-19
   76.38996        9.3446149E-19
   76.51680        9.3447814E-19
   76.64365        9.3449799E-19
   76.77049        9.3452033E-19
   76.89733        9.3454400E-19
   77.02418        9.3456851E-19
   77.15102        9.3459219E-19
   77.27786        9.3461390E-19
   77.40471        9.3463230E-19
   77.53155        9.3464616E-19
   77.65839        9.3465422E-19
   77.78524        9.3465578E-19
   77.91208        9.3464926E-19
   78.03893        9.3463458E-19
   78.16577        9.3461183E-19
   78.29261        9.3458195E-19
   78.41946        9.3454566E-19
   78.54630        9.3450420E-19
   78.67314        9.3446056E-19
   78.79999        9.3441600E-19
   78.92683        9.3437391E-19
   79.05367        9.3433679E-19
   79.18052        9.3430764E-19
   79.30737        9.3428892E-19
   79.43420        9.3428189E-19
   79.56105        9.3428830E-19
   79.68790        9.3430888E-19
   79.81474        9.3434248E-19
   79.94158        9.3438849E-19
   80.06842        9.3444484E-19
   80.19527        9.3450792E-19
   80.32211        9.3457389E-19
   80.44895        9.3463861E-19
   80.57580        9.3469734E-19
   80.70264        9.3474501E-19
   80.82948        9.3477706E-19
   80.95633        9.3479009E-19
   81.08318        9.3478016E-19
   81.21001        9.3474553E-19
   81.33686        9.3468566E-19
   81.46371        9.3460098E-19
   81.59055        9.3449448E-19
   81.71739        9.3437030E-19
   81.84424        9.3423443E-19
   81.97108        9.3409412E-19
   82.09792        9.3395805E-19
   82.22476        9.3383511E-19
   82.35161        9.3373554E-19
   82.47845        9.3366874E-19
   82.60529        9.3364289E-19
   82.73214        9.3366730E-19
   82.85899        9.3374764E-19
   82.98582        9.3388774E-19
   83.11267        9.3408864E-19
   83.23952        9.3434869E-19
   83.36636        9.3466188E-19
   83.49320        9.3501953E-19
   83.62005        9.3540913E-19
   83.74689        9.3581486E-19
   83.87373        9.3621863E-19
   84.00058        9.3660058E-19
   84.12742        9.3693797E-19
   84.25426        9.3720928E-19
   84.38111        9.3739292E-19
   84.50795        9.3746943E-19
   84.63480        9.3742197E-19
   84.76163        9.3723947E-19
   84.88848        9.3691419E-19
   85.01533        9.3644642E-19
   85.14217        9.3584185E-19
   85.26901        9.3511476E-19
   85.39586        9.3428665E-19
   85.52270        9.3338564E-19
   85.64954        9.3244772E-19
   85.77639        9.3151321E-19
   85.90323        9.3062772E-19
   86.03008        9.2983776E-19
   86.15692        9.2919132E-19
   86.28376        9.2873451E-19
   86.41061        9.2850920E-19
   86.53745        9.2855025E-19
   86.66429        9.2888485E-19
   86.79114        9.2952829E-19
   86.91798        9.3048451E-19
   87.04482        9.3174141E-19
   87.17167        9.3327521E-19
   87.29851        9.3504569E-19
   87.42535        9.3699732E-19
   87.55220        9.3906248E-19
   87.67904        9.4116062E-19
   87.80589        9.4320272E-19
   87.93273        9.4509262E-19
   88.05957        9.4673158E-19
   88.18642        9.4802188E-19
   88.31326        9.4887222E-19
   88.44010        9.4919968E-19
   88.56695        9.4893664E-19
   88.69379        9.4803294E-19
   88.82063        9.4646119E-19
   88.94748        9.4422036E-19
   89.07433        9.4133681E-19
   89.20116        9.3786637E-19
   89.32801        9.3389673E-19
   89.45486        9.2954442E-19
   89.58170        9.2495502E-19
   89.70854        9.2029882E-19
   89.83538        9.1576793E-19
   89.96223        9.1156979E-19
   90.08907        9.0791954E-19
   90.21591        9.0503371E-19
   90.34276        9.0312045E-19
   90.46960        9.0237061E-19
   90.59644        9.0294788E-19
   90.72329        9.0497850E-19
   90.85014        9.0854168E-19
   90.97697        9.1366235E-19
   91.10382        9.2030088E-19
   91.23067        9.2835049E-19
   91.35751        9.3762990E-19
   91.48435        9.4788436E-19
   91.61120        9.5878701E-19
   91.73804        9.6994392E-19
   91.86488        9.8090055E-19
   91.99173        9.9115738E-19
   92.11857        1.0001819E-18
   92.24541        1.0074300E-18
   92.37225        1.0123674E-18
   92.49910        1.0144947E-18
   92.62595        1.0133731E-18
   92.75278        1.0086527E-18
   92.87963        1.0000994E-18
   93.00648        9.8761974E-19
   93.13332        9.7128426E-19
   93.26016        9.5134528E-19
   93.38701        9.2824833E-19
   93.51385        9.0263810E-19
   93.64069        8.7535344E-19
   93.76754        8.4741526E-19
   93.89438        8.2000311E-19
   94.02122        7.9441935E-19
   94.14807        7.7204510E-19
   94.27491        7.5428873E-19
   94.40176        7.4252214E-19
   94.52859        7.3801189E-19
   94.65544        7.4184861E-19
   94.78229        7.5487407E-19
   94.90913        7.7760876E-19
   95.03597        8.1019260E-19
   95.16282        8.5232742E-19
   95.28966        9.0324101E-19
   95.41650        9.6166343E-19
   95.54335        1.0258299E-18
   95.67019        1.0935023E-18
   95.79704        1.1620170E-18
   95.92388        1.2283604E-18
   96.05072        1.2892692E-18
   96.17757        1.3413522E-18
   96.30441        1.3812336E-18
   96.43125        1.4057096E-18
   96.55810        1.4119179E-18
   96.68494        1.3975065E-18
   96.81178        1.3607971E-18
   96.93863        1.3009360E-18
   97.06547        1.2180225E-18
   97.19231        1.1132048E-18
   97.31916        9.8873829E-19
   97.44600        8.4799889E-19
   97.57285        6.9544605E-19
   97.69969        5.3653173E-19
   97.82653        3.7755602E-19
   97.95338        2.2546974E-19
   98.08022        8.7628541E-20
   98.20706       -2.8492650E-20
   98.33391       -1.1562013E-19
   98.46075       -1.6701950E-19
   98.58759       -1.7684239E-19
   98.71444       -1.4046260E-19
   98.84129       -5.4789807E-20
   98.96812        8.1456779E-20
   99.09497        2.6753092E-19
   99.22182        5.0051050E-19
   99.34866        7.7522928E-19
   99.47550        1.0842985E-18
   99.60234        1.4182264E-18
   99.72919        1.7656292E-18
   99.85603        2.1135445E-18
   99.98287        2.4478289E-18
   100.1097        2.7536346E-18
   100.2366        3.0159539E-18
   100.3634        3.2202032E-18
   100.4902        3.3528393E-18
   100.6171        3.4019778E-18
   100.7439        3.3579858E-18
   100.8708        3.2140390E-18
   100.9976        2.9666014E-18
   101.1245        2.6158232E-18
   101.2513        2.1658213E-18
   101.3782        1.6248400E-18
   101.5050        1.0052664E-18
   101.6318        3.2350225E-19
   101.7587       -4.0031744E-19
   101.8855       -1.1427597E-18
   102.0124       -1.8776719E-18
   102.1392       -2.5768978E-18
   102.2661       -3.2111168E-18
   102.3929       -3.7507839E-18
   102.5197       -4.1671515E-18
   102.6466       -4.4333452E-18
   102.7734       -4.5254671E-18
   102.9003       -4.4236933E-18
   103.0271       -4.1133289E-18
   103.1540       -3.5857907E-18
   103.2808       -2.8394772E-18
   103.4077       -1.8804878E-18
   103.5345       -7.2316032E-19
   103.6613        6.0962317E-19
   103.7882        2.0863782E-18
   103.9150        3.6672535E-18
   104.0419        5.3045819E-18
   104.1687        6.9437577E-18
   104.2956        8.5244684E-18
   104.4224        9.9822601E-18
   104.5492        1.1250450E-17
   104.6761        1.2262339E-17
   104.8029        1.2953684E-17
   104.9298        1.3265394E-17
   105.0566        1.3146345E-17
   105.1835        1.2556240E-17
   105.3103        1.1468391E-17
   105.4371        9.8723187E-18
   105.5640        7.7760214E-18
   105.6908        5.2077761E-18
   105.8177        2.2173604E-18
   105.9445       -1.1234990E-18
   106.0714       -4.7214803E-18
   106.1982       -8.4630040E-18
   106.3251       -1.2216548E-17
   106.4519       -1.5836025E-17
   106.5787       -1.9165159E-17
   106.7056       -2.2042825E-17
   106.8324       -2.4309214E-17
   106.9593       -2.5812656E-17
   107.0861       -2.6416881E-17
   107.2130       -2.6008416E-17
   107.3398       -2.4503826E-17
   107.4667       -2.1856444E-17
   107.5935       -1.8062203E-17
   107.7203       -1.3164238E-17
   107.8472       -7.2559059E-18
   107.9740       -4.8185587E-19