  -7.200000       -4.2671650E-18
  -7.073156       -4.2671679E-18
  -6.946313       -4.2671741E-18
  -6.819469       -4.2671828E-18
  -6.692626       -4.2671944E-18
  -6.565782       -4.2672085E-18
  -6.438938       -4.2672250E-18
  -6.312095       -4.2672432E-18
  -6.185251       -4.2672631E-18
  -6.058407       -4.2672842E-18
  -5.931563       -4.2673061E-18
  -5.804720       -4.2673284E-18
  -5.677876       -4.2673503E-18
  -5.551033       -4.2673714E-18
  -5.424189       -4.2673909E-18
  -5.297346       -4.2674087E-18
  -5.170502       -4.2674240E-18
  -5.043658       -4.2674359E-18
  -4.916814       -4.2674455E-18
  -4.789971       -4.2674512E-18
  -4.663127       -4.2674537E-18
  -4.536283       -4.2674533E-18
  -4.409440       -4.2674500E-18
  -4.282596       -4.2674450E-18
  -4.155753       -4.2674380E-18
  -4.028909       -4.2674306E-18
  -3.902065       -4.2674235E-18
  -3.775222       -4.2674165E-18
  -3.648378       -4.2674120E-18
  -3.521534       -4.2674099E-18
  -3.394691       -4.2674115E-18
  -3.267847       -4.2674182E-18
  -3.141004       -4.2674297E-18
  -3.014160       -4.2674467E-18
  -2.887316       -4.2674694E-18
  -2.760473       -4.2674988E-18
  -2.633629       -4.2675340E-18
  -2.506785       -4.2675749E-18
  -2.379942       -4.2676216E-18
  -2.253098       -4.2676725E-18
  -2.126254       -4.2677275E-18
  -1.999411       -4.2677858E-18
  -1.872567       -4.2678458E-18
  -1.745723       -4.2679062E-18
  -1.618880       -4.2679666E-18
  -1.492036       -4.2680253E-18
  -1.365193       -4.2680807E-18
  -1.238349       -4.2681320E-18
  -1.111505       -4.2681779E-18
 -0.9846617       -4.2682180E-18
 -0.8578180       -4.2682507E-18
 -0.7309744       -4.2682755E-18
 -0.6041307       -4.2682929E-18
 -0.4772871       -4.2683020E-18
 -0.3504435       -4.2683032E-18
 -0.2235998       -4.2682983E-18
 -9.6756198E-02   -4.2682863E-18
  3.0087441E-02   -4.2682689E-18
  0.1569311       -4.2682474E-18
  0.2837747       -4.2682230E-18
  0.4106184       -4.2681978E-18
  0.5374620       -4.2681726E-18
  0.6643056       -4.2681494E-18
  0.7911493       -4.2681287E-18
  0.9179929       -4.2681126E-18
   1.044837       -4.2681022E-18
   1.171680       -4.2680977E-18
   1.298524       -4.2680998E-18
   1.425367       -4.2681097E-18
   1.552211       -4.2681266E-18
   1.679055       -4.2681515E-18
   1.805898       -4.2681833E-18
   1.932742       -4.2682209E-18
   2.059586       -4.2682644E-18
   2.186429       -4.2683123E-18
   2.313273       -4.2683640E-18
   2.440117       -4.2684186E-18
   2.566960       -4.2684741E-18
   2.693804       -4.2685295E-18
   2.820647       -4.2685845E-18
   2.947491       -4.2686366E-18
   3.074335       -4.2686854E-18
   3.201178       -4.2687301E-18
   3.328022       -4.2687698E-18
   3.454866       -4.2688037E-18
   3.581709       -4.2688306E-18
   3.708553       -4.2688513E-18
   3.835397       -4.2688645E-18
   3.962240       -4.2688695E-18
   4.089084       -4.2688678E-18
   4.215928       -4.2688587E-18
   4.342771       -4.2688430E-18
   4.469615       -4.2688215E-18
   4.596458       -4.2687946E-18
   4.723302       -4.2687632E-18
   4.850146       -4.2687284E-18
   4.976989       -4.2686924E-18
   5.103833       -4.2686556E-18
   5.230677       -4.2686201E-18
   5.357520       -4.2685870E-18
   5.484364       -4.2685576E-18
   5.611207       -4.2685336E-18
   5.738051       -4.2685150E-18
   5.864895       -4.2685038E-18
   5.991738       -4.2685009E-18
   6.118582       -4.2685059E-18
   6.245426       -4.2685191E-18
   6.372270       -4.2685406E-18
   6.499113       -4.2685700E-18
   6.625957       -4.2686064E-18
   6.752800       -4.2686486E-18
   6.879644       -4.2686962E-18
   7.006487       -4.2687470E-18
   7.133331       -4.2688000E-18
   7.260175       -4.2688537E-18
   7.387019       -4.2689063E-18
   7.513862       -4.2689567E-18
   7.640706       -4.2690035E-18
   7.767550       -4.2690448E-18
   7.894393       -4.2690800E-18
   8.021236       -4.2691081E-18
   8.148081       -4.2691288E-18
   8.274924       -4.2691420E-18
   8.401768       -4.2691466E-18
   8.528611       -4.2691432E-18
   8.655455       -4.2691321E-18
   8.782298       -4.2691143E-18
   8.909142       -4.2690899E-18
   9.035986       -4.2690605E-18
   9.162829       -4.2690274E-18
   9.289673       -4.2689919E-18
   9.416516       -4.2689551E-18
   9.543361       -4.2689191E-18
   9.670204       -4.2688843E-18
   9.797048       -4.2688533E-18
   9.923891       -4.2688273E-18
   10.05073       -4.2688066E-18
   10.17758       -4.2687929E-18
   10.30442       -4.2687867E-18
   10.43127       -4.2687892E-18
   10.55811       -4.2687996E-18
   10.68495       -4.2688186E-18
   10.81180       -4.2688450E-18
   10.93864       -4.2688794E-18
   11.06548       -4.2689199E-18
   11.19233       -4.2689666E-18
   11.31917       -4.2690179E-18
   11.44602       -4.2690725E-18
   11.57286       -4.2691300E-18
   11.69970       -4.2691883E-18
   11.82655       -4.2692479E-18
   11.95339       -4.2693058E-18
   12.08023       -4.2693625E-18
   12.20708       -4.2694166E-18
   12.33392       -4.2694687E-18
   12.46076       -4.2695171E-18
   12.58761       -4.2695622E-18
   12.71445       -4.2696027E-18
   12.84130       -4.2696400E-18
   12.96814       -4.2696739E-18
   13.09498       -4.2697045E-18
   13.22183       -4.2697322E-18
   13.34867       -4.2697570E-18
   13.47551       -4.2697793E-18
   13.60236       -4.2698000E-18
   13.72920       -4.2698191E-18
   13.85604       -4.2698373E-18
   13.98289       -4.2698550E-18
   14.10973       -4.2698720E-18
   14.23658       -4.2698902E-18
   14.36342       -4.2699088E-18
   14.49026       -4.2699291E-18
   14.61711       -4.2699510E-18
   14.74395       -4.2699754E-18
   14.87079       -4.2700014E-18
   14.99764       -4.2700304E-18
   15.12448       -4.2700622E-18
   15.25132       -4.2700962E-18
   15.37817       -4.2701330E-18
   15.50501       -4.2701710E-18
   15.63186       -4.2702111E-18
   15.75870       -4.2702521E-18
   15.88554       -4.2702930E-18
   16.01239       -4.2703336E-18
   16.13923       -4.2703724E-18
   16.26607       -4.2704084E-18
   16.39292       -4.2704419E-18
   16.51976       -4.2704721E-18
   16.64660       -4.2704978E-18
   16.77345       -4.2705188E-18
   16.90029       -4.2705346E-18
   17.02714       -4.2705457E-18
   17.15398       -4.2705519E-18
   17.28082       -4.2705532E-18
   17.40767       -4.2705503E-18
   17.53451       -4.2705441E-18
   17.66135       -4.2705346E-18
   17.78820       -4.2705230E-18
   17.91504       -4.2705098E-18
   18.04188       -4.2704965E-18
   18.16873       -4.2704841E-18
   18.29557       -4.2704729E-18
   18.42241       -4.2704643E-18
   18.54926       -4.2704585E-18
   18.67610       -4.2704568E-18
   18.80295       -4.2704605E-18
   18.92979       -4.2704692E-18
   19.05663       -4.2704841E-18
   19.18348       -4.2705056E-18
   19.31032       -4.2705329E-18
   19.43716       -4.2705664E-18
   19.56401       -4.2706061E-18
   19.69085       -4.2706504E-18
   19.81770       -4.2707004E-18
   19.94454       -4.2707538E-18
   20.07138       -4.2708100E-18
   20.19823       -4.2708683E-18
   20.32507       -4.2709275E-18
   20.45191       -4.2709862E-18
   20.57876       -4.2710429E-18
   20.70560       -4.2710962E-18
   20.83245       -4.2711459E-18
   20.95929       -4.2711901E-18
   21.08613       -4.2712282E-18
   21.21297       -4.2712596E-18
   21.33982       -4.2712844E-18
   21.46666       -4.2713014E-18
   21.59351       -4.2713105E-18
   21.72035       -4.2713129E-18
   21.84719       -4.2713084E-18
   21.97404       -4.2712985E-18
   22.10088       -4.2712823E-18
   22.22772       -4.2712629E-18
   22.35457       -4.2712406E-18
   22.48141       -4.2712162E-18
   22.60826       -4.2711909E-18
   22.73510       -4.2711657E-18
   22.86194       -4.2711425E-18
   22.98879       -4.2711215E-18
   23.11563       -4.2711045E-18
   23.24247       -4.2710913E-18
   23.36932       -4.2710838E-18
   23.49616       -4.2710817E-18
   23.62300       -4.2710863E-18
   23.74985       -4.2710970E-18
   23.87669       -4.2711144E-18
   24.00353       -4.2711380E-18
   24.13038       -4.2711678E-18
   24.25722       -4.2712038E-18
   24.38407       -4.2712447E-18
   24.51091       -4.2712898E-18
   24.63775       -4.2713386E-18
   24.76460       -4.2713899E-18
   24.89144       -4.2714424E-18
   25.01828       -4.2714949E-18
   25.14513       -4.2715466E-18
   25.27197       -4.2715963E-18
   25.39882       -4.2716422E-18
   25.52566       -4.2716835E-18
   25.65250       -4.2717199E-18
   25.77935       -4.2717509E-18
   25.90619       -4.2717758E-18
   26.03303       -4.2717948E-18
   26.15988       -4.2718072E-18
   26.28672       -4.2718146E-18
   26.41356       -4.2718159E-18
   26.54041       -4.2718134E-18
   26.66725       -4.2718076E-18
   26.79410       -4.2717981E-18
   26.92094       -4.2717877E-18
   27.04778       -4.2717766E-18
   27.17463       -4.2717658E-18
   27.30147       -4.2717563E-18
   27.42831       -4.2717489E-18
   27.55516       -4.2717439E-18
   27.68200       -4.2717427E-18
   27.80884       -4.2717447E-18
   27.93569       -4.2717501E-18
   28.06253       -4.2717592E-18
   28.18937       -4.2717724E-18
   28.31622       -4.2717886E-18
   28.44306       -4.2718080E-18
   28.56991       -4.2718308E-18
   28.69675       -4.2718552E-18
   28.82359       -4.2718812E-18
   28.95044       -4.2719081E-18
   29.07728       -4.2719362E-18
   29.20412       -4.2719639E-18
   29.33097       -4.2719912E-18
   29.45781       -4.2720177E-18
   29.58466       -4.2720425E-18
   29.71150       -4.2720653E-18
   29.83834       -4.2720859E-18
   29.96519       -4.2721037E-18
   30.09203       -4.2721190E-18
   30.21887       -4.2721314E-18
   30.34572       -4.2721414E-18
   30.47256       -4.2721484E-18
   30.59941       -4.2721529E-18
   30.72625       -4.2721546E-18
   30.85309       -4.2721542E-18
   30.97993       -4.2721517E-18
   31.10678       -4.2721480E-18
   31.23362       -4.2721426E-18
   31.36047       -4.2721360E-18
   31.48731       -4.2721290E-18
   31.61415       -4.2721207E-18
   31.74100       -4.2721128E-18
   31.86784       -4.2721050E-18
   31.99468       -4.2720971E-18
   32.12153       -4.2720893E-18
   32.24837       -4.2720814E-18
   32.37521       -4.2720739E-18
   32.50206       -4.2720677E-18
   32.62890       -4.2720620E-18
   32.75574       -4.2720570E-18
   32.88259       -4.2720533E-18
   33.00943       -4.2720504E-18
   33.13628       -4.2720487E-18
   33.26312       -4.2720487E-18
   33.38997       -4.2720500E-18
   33.51681       -4.2720529E-18
   33.64365       -4.2720562E-18
   33.77050       -4.2720611E-18
   33.89734       -4.2720669E-18
   34.02418       -4.2720727E-18
   34.15103       -4.2720781E-18
   34.27787       -4.2720839E-18
   34.40471       -4.2720888E-18
   34.53156       -4.2720930E-18
   34.65840       -4.2720959E-18
   34.78524       -4.2720975E-18
   34.91209       -4.2720967E-18
   35.03893       -4.2720934E-18
   35.16578       -4.2720880E-18
   35.29262       -4.2720802E-18
   35.41946       -4.2720694E-18
   35.54631       -4.2720558E-18
   35.67315       -4.2720400E-18
   35.80000       -4.2720218E-18
   35.92684       -4.2720012E-18
   36.05368       -4.2719784E-18
   36.18052       -4.2719540E-18
   36.30737       -4.2719275E-18
   36.43421       -4.2718994E-18
   36.56105       -4.2718709E-18
   36.68790       -4.2718411E-18
   36.81474       -4.2718105E-18
   36.94159       -4.2717799E-18
   37.06843       -4.2717493E-18
   37.19527       -4.2717191E-18
   37.32212       -4.2716906E-18
   37.44896       -4.2716628E-18
   37.57581       -4.2716380E-18
   37.70265       -4.2716157E-18
   37.82949       -4.2715967E-18
   37.95634       -4.2715809E-18
   38.08318       -4.2715694E-18
   38.21002       -4.2715619E-18
   38.33687       -4.2715590E-18
   38.46371       -4.2715607E-18
   38.59055       -4.2715661E-18
   38.71740       -4.2715756E-18
   38.84424       -4.2715884E-18
   38.97108       -4.2716037E-18
   39.09793       -4.2716207E-18
   39.22477       -4.2716393E-18
   39.35162       -4.2716570E-18
   39.47846       -4.2716736E-18
   39.60530       -4.2716881E-18
   39.73215       -4.2716996E-18
   39.85899       -4.2717067E-18
   39.98583       -4.2717100E-18
   40.11268       -4.2717087E-18
   40.23952       -4.2717034E-18
   40.36636       -4.2716930E-18
   40.49321       -4.2716790E-18
   40.62005       -4.2716616E-18
   40.74689       -4.2716417E-18
   40.87374       -4.2716202E-18
   41.00058       -4.2715991E-18
   41.12743       -4.2715772E-18
   41.25427       -4.2715578E-18
   41.38111       -4.2715400E-18
   41.50796       -4.2715255E-18
   41.63480       -4.2715144E-18
   41.76165       -4.2715069E-18
   41.88849       -4.2715036E-18
   42.01533       -4.2715040E-18
   42.14218       -4.2715082E-18
   42.26902       -4.2715160E-18
   42.39586       -4.2715259E-18
   42.52271       -4.2715388E-18
   42.64955       -4.2715537E-18
   42.77639       -4.2715694E-18
   42.90324       -4.2715859E-18
   43.03008       -4.2716029E-18
   43.15693       -4.2716190E-18
   43.28377       -4.2716351E-18
   43.41061       -4.2716496E-18
   43.53746       -4.2716637E-18
   43.66430       -4.2716757E-18
   43.79114       -4.2716860E-18
   43.91799       -4.2716951E-18
   44.04483       -4.2717013E-18
   44.17167       -4.2717054E-18
   44.29852       -4.2717079E-18
   44.42536       -4.2717075E-18
   44.55220       -4.2717046E-18
   44.67905       -4.2716992E-18
   44.80589       -4.2716906E-18
   44.93274       -4.2716786E-18
   45.05958       -4.2716637E-18
   45.18642       -4.2716459E-18
   45.31327       -4.2716256E-18
   45.44011       -4.2716033E-18
   45.56696       -4.2715789E-18
   45.69380       -4.2715528E-18
   45.82064       -4.2715268E-18
   45.94748       -4.2715003E-18
   46.07433       -4.2714751E-18
   46.20117       -4.2714519E-18
   46.32801       -4.2714312E-18
   46.45486       -4.2714139E-18
   46.58170       -4.2714006E-18
   46.70855       -4.2713919E-18
   46.83539       -4.2713878E-18
   46.96223       -4.2713878E-18
   47.08908       -4.2713928E-18
   47.21592       -4.2714019E-18
   47.34277       -4.2714143E-18
   47.46961       -4.2714296E-18
   47.59645       -4.2714465E-18
   47.72330       -4.2714643E-18
   47.85014       -4.2714809E-18
   47.97698       -4.2714966E-18
   48.10383       -4.2715094E-18
   48.23067       -4.2715189E-18
   48.35751       -4.2715243E-18
   48.48436       -4.2715247E-18
   48.61120       -4.2715193E-18
   48.73804       -4.2715090E-18
   48.86489       -4.2714929E-18
   48.99173       -4.2714718E-18
   49.11858       -4.2714457E-18
   49.24542       -4.2714155E-18
   49.37226       -4.2713820E-18
   49.49911       -4.2713464E-18
   49.62595       -4.2713092E-18
   49.75279       -4.2712724E-18
   49.87964       -4.2712364E-18
   50.00648       -4.2712021E-18
   50.13332       -4.2711715E-18
   50.26017       -4.2711442E-18
   50.38701       -4.2711219E-18
   50.51385       -4.2711053E-18
   50.64070       -4.2710946E-18
   50.76754       -4.2710896E-18
   50.89439       -4.2710908E-18
   51.02123       -4.2710987E-18
   51.14808       -4.2711124E-18
   51.27492       -4.2711314E-18
   51.40176       -4.2711550E-18
   51.52861       -4.2711827E-18
   51.65545       -4.2712137E-18
   51.78229       -4.2712476E-18
   51.90914       -4.2712819E-18
   52.03598       -4.2713171E-18
   52.16282       -4.2713522E-18
   52.28967       -4.2713849E-18
   52.41651       -4.2714151E-18
   52.54335       -4.2714424E-18
   52.67020       -4.2714656E-18
   52.79704       -4.2714833E-18
   52.92389       -4.2714957E-18
   53.05073       -4.2715028E-18
   53.17757       -4.2715048E-18
   53.30442       -4.2714999E-18
   53.43126       -4.2714900E-18
   53.55810       -4.2714747E-18
   53.68495       -4.2714548E-18
   53.81179       -4.2714308E-18
   53.93863       -4.2714048E-18
   54.06548       -4.2713770E-18
   54.19232       -4.2713498E-18
   54.31916       -4.2713233E-18
   54.44601       -4.2712993E-18
   54.57285       -4.2712799E-18
   54.69970       -4.2712654E-18
   54.82654       -4.2712583E-18
   54.95338       -4.2712583E-18
   55.08023       -4.2712670E-18
   55.20707       -4.2712844E-18
   55.33392       -4.2713105E-18
   55.46076       -4.2713456E-18
   55.58760       -4.2713878E-18
   55.71444       -4.2714370E-18
   55.84129       -4.2714924E-18
   55.96813       -4.2715520E-18
   56.09497       -4.2716140E-18
   56.22182       -4.2716765E-18
   56.34866       -4.2717385E-18
   56.47551       -4.2717973E-18
   56.60235       -4.2718519E-18
   56.72919       -4.2718998E-18
   56.85604       -4.2719399E-18
   56.98288       -4.2719718E-18
   57.10973       -4.2719937E-18
   57.23657       -4.2720057E-18
   57.36341       -4.2720074E-18
   57.49026       -4.2719987E-18
   57.61710       -4.2719805E-18
   57.74394       -4.2719528E-18
   57.87079       -4.2719176E-18
   57.99763       -4.2718754E-18
   58.12447       -4.2718291E-18
   58.25132       -4.2717791E-18
   58.37816       -4.2717282E-18
   58.50500       -4.2716777E-18
   58.63185       -4.2716293E-18
   58.75869       -4.2715855E-18
   58.88554       -4.2715474E-18
   59.01238       -4.2715168E-18
   59.13923       -4.2714941E-18
   59.26607       -4.2714809E-18
   59.39291       -4.2714776E-18
   59.51975       -4.2714846E-18
   59.64660       -4.2715020E-18
   59.77344       -4.2715280E-18
   59.90028       -4.2715636E-18
   60.02713       -4.2716062E-18
   60.15397       -4.2716550E-18
   60.28082       -4.2717087E-18
   60.40766       -4.2717646E-18
   60.53450       -4.2718217E-18
   60.66135       -4.2718779E-18
   60.78819       -4.2719321E-18
   60.91504       -4.2719817E-18
   61.04188       -4.2720251E-18
   61.16872       -4.2720620E-18
   61.29557       -4.2720905E-18
   61.42241       -4.2721112E-18
   61.54925       -4.2721223E-18
   61.67610       -4.2721244E-18
   61.80294       -4.2721170E-18
   61.92978       -4.2721008E-18
   62.05663       -4.2720777E-18
   62.18347       -4.2720475E-18
   62.31031       -4.2720123E-18
   62.43716       -4.2719730E-18
   62.56400       -4.2719308E-18
   62.69085       -4.2718874E-18
   62.81769       -4.2718440E-18
   62.94453       -4.2718022E-18
   63.07138       -4.2717633E-18
   63.19822       -4.2717282E-18
   63.32506       -4.2716988E-18
   63.45191       -4.2716757E-18
   63.57875       -4.2716595E-18
   63.70559       -4.2716508E-18
   63.83244       -4.2716504E-18
   63.95928       -4.2716579E-18
   64.08613       -4.2716740E-18
   64.21297       -4.2716976E-18
   64.33981       -4.2717282E-18
   64.46666       -4.2717650E-18
   64.59350       -4.2718068E-18
   64.72034       -4.2718519E-18
   64.84719       -4.2718994E-18
   64.97403       -4.2719474E-18
   65.10088       -4.2719945E-18
   65.22771       -4.2720392E-18
   65.35456       -4.2720797E-18
   65.48141       -4.2721149E-18
   65.60825       -4.2721443E-18
   65.73509       -4.2721666E-18
   65.86194       -4.2721807E-18
   65.98878       -4.2721864E-18
   66.11562       -4.2721840E-18
   66.24247       -4.2721728E-18
   66.36931       -4.2721529E-18
   66.49615       -4.2721261E-18
   66.62300       -4.2720917E-18
   66.74984       -4.2720512E-18
   66.87669       -4.2720057E-18
   67.00353       -4.2719565E-18
   67.13037       -4.2719035E-18
   67.25722       -4.2718490E-18
   67.38406       -4.2717935E-18
   67.51090       -4.2717406E-18
   67.63775       -4.2716901E-18
   67.76459       -4.2716442E-18
   67.89143       -4.2716045E-18
   68.01828       -4.2715727E-18
   68.14512       -4.2715503E-18
   68.27197       -4.2715388E-18
   68.39881       -4.2715379E-18
   68.52565       -4.2715495E-18
   68.65250       -4.2715727E-18
   68.77934       -4.2716078E-18
   68.90618       -4.2716533E-18
   69.03303       -4.2717083E-18
   69.15987       -4.2717712E-18
   69.28671       -4.2718399E-18
   69.41356       -4.2719114E-18
   69.54041       -4.2719834E-18
   69.66724       -4.2720520E-18
   69.79409       -4.2721161E-18
   69.92093       -4.2721724E-18
   70.04778       -4.2722183E-18
   70.17462       -4.2722522E-18
   70.30146       -4.2722725E-18
   70.42831       -4.2722787E-18
   70.55515       -4.2722708E-18
   70.68199       -4.2722489E-18
   70.80884       -4.2722146E-18
   70.93568       -4.2721687E-18
   71.06252       -4.2721132E-18
   71.18937       -4.2720508E-18
   71.31622       -4.2719842E-18
   71.44305       -4.2719151E-18
   71.56990       -4.2718465E-18
   71.69675       -4.2717811E-18
   71.82359       -4.2717199E-18
   71.95043       -4.2716657E-18
   72.07728       -4.2716194E-18
   72.20412       -4.2715818E-18
   72.33096       -4.2715537E-18
   72.45780       -4.2715359E-18
   72.58465       -4.2715276E-18
   72.71149       -4.2715284E-18
   72.83833       -4.2715375E-18
   72.96518       -4.2715541E-18
   73.09203       -4.2715768E-18
   73.21886       -4.2716041E-18
   73.34571       -4.2716351E-18
   73.47256       -4.2716682E-18
   73.59940       -4.2717009E-18
   73.72624       -4.2717327E-18
   73.85309       -4.2717613E-18
   73.97993       -4.2717865E-18
   74.10677       -4.2718055E-18
   74.23362       -4.2718183E-18
   74.36046       -4.2718237E-18
   74.48730       -4.2718212E-18
   74.61415       -4.2718101E-18
   74.74099       -4.2717902E-18
   74.86784       -4.2717621E-18
   74.99467       -4.2717265E-18
   75.12152       -4.2716831E-18
   75.24837       -4.2716343E-18
   75.37521       -4.2715809E-18
   75.50205       -4.2715239E-18
   75.62890       -4.2714643E-18
   75.75574       -4.2714043E-18
   75.88258       -4.2713452E-18
   76.00943       -4.2712881E-18
   76.13627       -4.2712352E-18
   76.26311       -4.2711868E-18
   76.38996       -4.2711442E-18
   76.51680       -4.2711095E-18
   76.64365       -4.2710813E-18
   76.77049       -4.2710627E-18
   76.89733       -4.2710524E-18
   77.02418       -4.2710511E-18
   77.15102       -4.2710582E-18
   77.27786       -4.2710747E-18
   77.40471       -4.2710995E-18
   77.53155       -4.2711322E-18
   77.65839       -4.2711711E-18
   77.78524       -4.2712170E-18
   77.91208       -4.2712674E-18
   78.03893       -4.2713212E-18
   78.16577       -4.2713775E-18
   78.29261       -4.2714337E-18
   78.41946       -4.2714879E-18
   78.54630       -4.2715383E-18
   78.67314       -4.2715834E-18
   78.79999       -4.2716215E-18
   78.92683       -4.2716496E-18
   79.05367       -4.2716674E-18
   79.18052       -4.2716736E-18
   79.30737       -4.2716666E-18
   79.43420       -4.2716459E-18
   79.56105       -4.2716111E-18
   79.68790       -4.2715632E-18
   79.81474       -4.2715024E-18
   79.94158       -4.2714300E-18
   80.06842       -4.2713477E-18
   80.19527       -4.2712583E-18
   80.32211       -4.2711641E-18
   80.44895       -4.2710673E-18
   80.57580       -4.2709717E-18
   80.70264       -4.2708799E-18
   80.82948       -4.2707951E-18
   80.95633       -4.2707211E-18
   81.08318       -4.2706607E-18
   81.21001       -4.2706156E-18
   81.33686       -4.2705892E-18
   81.46371       -4.2705821E-18
   81.59055       -4.2705966E-18
   81.71739       -4.2706330E-18
   81.84424       -4.2706913E-18
   81.97108       -4.2707716E-18
   82.09792       -4.2708712E-18
   82.22476       -4.2709895E-18
   82.35161       -4.2711235E-18
   82.47845       -4.2712691E-18
   82.60529       -4.2714234E-18
   82.73214       -4.2715809E-18
   82.85899       -4.2717365E-18
   82.98582       -4.2718849E-18
   83.11267       -4.2720198E-18
   83.23952       -4.2721347E-18
   83.36636       -4.2722228E-18
   83.49320       -4.2722787E-18
   83.62005       -4.2722956E-18
   83.74689       -4.2722667E-18
   83.87373       -4.2721881E-18
   84.00058       -4.2720553E-18
   84.12742       -4.2718667E-18
   84.25426       -4.2716207E-18
   84.38111       -4.2713196E-18
   84.50795       -4.2709668E-18
   84.63480       -4.2705693E-18
   84.76163       -4.2701379E-18
   84.88848       -4.2696859E-18
   85.01533       -4.2692301E-18
   85.14217       -4.2687905E-18
   85.26901       -4.2683897E-18
   85.39586       -4.2680534E-18
   85.52270       -4.2678078E-18
   85.64954       -4.2676783E-18
   85.77639       -4.2676907E-18
   85.90323       -4.2678661E-18
   86.03008       -4.2682222E-18
   86.15692       -4.2687702E-18
   86.28376       -4.2695122E-18
   86.41061       -4.2704419E-18
   86.53745       -4.2715404E-18
   86.66429       -4.2727771E-18
   86.79114       -4.2741105E-18
   86.91798       -4.2754844E-18
   87.04482       -4.2768344E-18
   87.17167       -4.2780851E-18
   87.29851       -4.2791554E-18
   87.42535       -4.2799624E-18
   87.55220       -4.2804231E-18
   87.67904       -4.2804616E-18
   87.80589       -4.2800145E-18
   87.93273       -4.2790343E-18
   88.05957       -4.2774957E-18
   88.18642       -4.2753996E-18
   88.31326       -4.2727779E-18
   88.44010       -4.2696954E-18
   88.56695       -4.2662494E-18
   88.69379       -4.2625730E-18
   88.82063       -4.2588267E-18
   88.94748       -4.2551982E-18
   89.07433       -4.2518932E-18
   89.20116       -4.2491263E-18
   89.32801       -4.2471121E-18
   89.45486       -4.2460513E-18
   89.58170       -4.2461203E-18
   89.70854       -4.2474554E-18
   89.83538       -4.2501450E-18
   89.96223       -4.2542135E-18
   90.08907       -4.2596166E-18
   90.21591       -4.2662349E-18
   90.34276       -4.2738689E-18
   90.46960       -4.2822450E-18
   90.59644       -4.2910168E-18
   90.72329       -4.2997791E-18
   90.85014       -4.3080824E-18
   90.97697       -4.3154505E-18
   91.10382       -4.3214053E-18
   91.23067       -4.3254904E-18
   91.35751       -4.3272982E-18
   91.48435       -4.3264958E-18
   91.61120       -4.3228525E-18
   91.73804       -4.3162595E-18
   91.86488       -4.3067481E-18
   91.99173       -4.2945042E-18
   92.11857       -4.2798714E-18
   92.24541       -4.2633493E-18
   92.37225       -4.2455794E-18
   92.49910       -4.2273289E-18
   92.62595       -4.2094609E-18
   92.75278       -4.1928958E-18
   92.87963       -4.1785719E-18
   93.00648       -4.1673984E-18
   93.13332       -4.1602040E-18
   93.26016       -4.1576898E-18
   93.38701       -4.1603806E-18
   93.51385       -4.1685862E-18
   93.64069       -4.1823650E-18
   93.76754       -4.2015030E-18
   93.89438       -4.2255012E-18
   94.02122       -4.2535807E-18
   94.14807       -4.2846984E-18
   94.27491       -4.3175780E-18
   94.40176       -4.3507574E-18
   94.52859       -4.3826490E-18
   94.65544       -4.4116032E-18
   94.78229       -4.4359905E-18
   94.90913       -4.4542774E-18
   95.03597       -4.4651114E-18
   95.16282       -4.4673924E-18
   95.28966       -4.4603456E-18
   95.41650       -4.4435803E-18
   95.54335       -4.4171296E-18
   95.67019       -4.3814756E-18
   95.79704       -4.3375565E-18
   95.92388       -4.2867506E-18
   96.05072       -4.2308390E-18
   96.17757       -4.1719495E-18
   96.30441       -4.1124843E-18
   96.43125       -4.0550263E-18
   96.55810       -4.0022410E-18
   96.68494       -3.9567668E-18
   96.81178       -3.9211004E-18
   96.93863       -3.8974889E-18
   97.06547       -3.8878242E-18
   97.19231       -3.8935487E-18
   97.31916       -3.9155752E-18
   97.44600       -3.9542240E-18
   97.57285       -4.0091823E-18
   97.69969       -4.0794782E-18
   97.82653       -4.1634817E-18
   97.95338       -4.2589267E-18
   98.08022       -4.3629538E-18
   98.20706       -4.4721677E-18
   98.33391       -4.5827220E-18
   98.46075       -4.6904110E-18
   98.58759       -4.7907799E-18
   98.71444       -4.8792460E-18
   98.84129       -4.9512306E-18
   98.96812       -5.0023024E-18
   99.09497       -5.0283238E-18
   99.22182       -5.0256065E-18
   99.34866       -4.9910742E-18
   99.47550       -4.9224240E-18
   99.60234       -4.8182886E-18
   99.72919       -4.6783983E-18
   99.85603       -4.5037321E-18
   99.98287       -4.2966528E-18
   100.1097       -4.0610217E-18
   100.2366       -3.8022838E-18
   100.3634       -3.5275026E-18
   100.4902       -3.2453503E-18
   100.6171       -2.9660279E-18
   100.7439       -2.7011107E-18
   100.8708       -2.4633071E-18
   100.9976       -2.2661273E-18
   101.1245       -2.1234522E-18
   101.2513       -2.0490103E-18
   101.3782       -2.0557651E-18
   101.5050       -2.1552253E-18
   101.6318       -2.3567058E-18
   101.7587       -2.6665553E-18
   101.8855       -3.0873927E-18
   102.0124       -3.6173903E-18
   102.1392       -4.2496478E-18
   102.2661       -4.9717062E-18
   102.3929       -5.7652512E-18
   102.5197       -6.6060472E-18
   102.6466       -7.4641544E-18
   102.7734       -8.3044508E-18
   102.9003       -9.0874864E-18
   103.0271       -9.7706830E-18
   103.1540       -1.0309854E-17
   103.2808       -1.0661040E-17
   103.4077       -1.0782584E-17
   103.5345       -1.0637400E-17
   103.6613       -1.0195342E-17
   103.7882       -9.4355525E-18
   103.9150       -8.3486942E-18
   104.0419       -6.9389262E-18
   104.1687       -5.2254852E-18
   104.2956       -3.2437588E-18
   104.4224       -1.0457209E-18
   104.5492        1.3003671E-18
   104.6761        3.7110614E-18
   104.8029        6.0896983E-18
   104.9298        8.3292158E-18
   105.0566        1.0315792E-17
   105.1835        1.1933228E-17
   105.3103        1.3067939E-17
   105.4371        1.3614390E-17
   105.5640        1.3480752E-17
   105.6908        1.2594544E-17
   105.8177        1.0907985E-17
   105.9445        8.4027827E-18
   106.0714        5.0940545E-18
   106.1982        1.0331372E-18
   106.3251       -3.6909643E-18
   106.4519       -8.9516981E-18
   106.5787       -1.4586778E-17
   106.7056       -2.0401763E-17
   106.8324       -2.6175417E-17
   106.9593       -3.1666724E-17
   107.0861       -3.6623412E-17
   107.2130       -4.0791710E-17
   107.3398       -4.3927013E-17
   107.4667       -4.5805007E-17
   107.5935       -4.6232858E-17
   107.7203       -4.5059926E-17
   107.8472       -4.2187492E-17
   107.9740       -3.7577015E-17