  -7.200000        1.0133188E-17
  -7.073156        1.0133187E-17
  -6.946313        1.0133187E-17
  -6.819469        1.0133184E-17
  -6.692626        1.0133182E-17
  -6.565782        1.0133179E-17
  -6.438938        1.0133177E-17
  -6.312095        1.0133175E-17
  -6.185251        1.0133173E-17
  -6.058407        1.0133172E-17
  -5.931563        1.0133171E-17
  -5.804720        1.0133170E-17
  -5.677876        1.0133169E-17
  -5.551033        1.0133168E-17
  -5.424189        1.0133167E-17
  -5.297346        1.0133164E-17
  -5.170502        1.0133161E-17
  -5.043658        1.0133155E-17
  -4.916814        1.0133148E-17
  -4.789971        1.0133139E-17
  -4.663127        1.0133128E-17
  -4.536283        1.0133116E-17
  -4.409440        1.0133102E-17
  -4.282596        1.0133088E-17
  -4.155753        1.0133075E-17
  -4.028909        1.0133063E-17
  -3.902065        1.0133051E-17
  -3.775222        1.0133040E-17
  -3.648378        1.0133032E-17
  -3.521534        1.0133026E-17
  -3.394691        1.0133022E-17
  -3.267847        1.0133020E-17
  -3.141004        1.0133020E-17
  -3.014160        1.0133022E-17
  -2.887316        1.0133024E-17
  -2.760473        1.0133026E-17
  -2.633629        1.0133028E-17
  -2.506785        1.0133028E-17
  -2.379942        1.0133027E-17
  -2.253098        1.0133025E-17
  -2.126254        1.0133021E-17
  -1.999411        1.0133015E-17
  -1.872567        1.0133009E-17
  -1.745723        1.0133001E-17
  -1.618880        1.0132993E-17
  -1.492036        1.0132986E-17
  -1.365193        1.0132979E-17
  -1.238349        1.0132973E-17
  -1.111505        1.0132968E-17
 -0.9846617        1.0132967E-17
 -0.8578180        1.0132967E-17
 -0.7309744        1.0132969E-17
 -0.6041307        1.0132973E-17
 -0.4772871        1.0132979E-17
 -0.3504435        1.0132986E-17
 -0.2235998        1.0132995E-17
 -9.6756198E-02    1.0133003E-17
  3.0087441E-02    1.0133012E-17
  0.1569311        1.0133020E-17
  0.2837747        1.0133029E-17
  0.4106184        1.0133035E-17
  0.5374620        1.0133043E-17
  0.6643056        1.0133049E-17
  0.7911493        1.0133055E-17
  0.9179929        1.0133062E-17
   1.044837        1.0133069E-17
   1.171680        1.0133077E-17
   1.298524        1.0133086E-17
   1.425367        1.0133096E-17
   1.552211        1.0133106E-17
   1.679055        1.0133118E-17
   1.805898        1.0133130E-17
   1.932742        1.0133141E-17
   2.059586        1.0133152E-17
   2.186429        1.0133162E-17
   2.313273        1.0133170E-17
   2.440117        1.0133176E-17
   2.566960        1.0133179E-17
   2.693804        1.0133181E-17
   2.820647        1.0133179E-17
   2.947491        1.0133176E-17
   3.074335        1.0133171E-17
   3.201178        1.0133164E-17
   3.328022        1.0133157E-17
   3.454866        1.0133149E-17
   3.581709        1.0133143E-17
   3.708553        1.0133137E-17
   3.835397        1.0133132E-17
   3.962240        1.0133130E-17
   4.089084        1.0133129E-17
   4.215928        1.0133130E-17
   4.342771        1.0133133E-17
   4.469615        1.0133137E-17
   4.596458        1.0133141E-17
   4.723302        1.0133144E-17
   4.850146        1.0133148E-17
   4.976989        1.0133150E-17
   5.103833        1.0133151E-17
   5.230677        1.0133149E-17
   5.357520        1.0133147E-17
   5.484364        1.0133144E-17
   5.611207        1.0133139E-17
   5.738051        1.0133133E-17
   5.864895        1.0133128E-17
   5.991738        1.0133124E-17
   6.118582        1.0133120E-17
   6.245426        1.0133117E-17
   6.372270        1.0133116E-17
   6.499113        1.0133116E-17
   6.625957        1.0133117E-17
   6.752800        1.0133119E-17
   6.879644        1.0133120E-17
   7.006487        1.0133121E-17
   7.133331        1.0133121E-17
   7.260175        1.0133119E-17
   7.387019        1.0133115E-17
   7.513862        1.0133108E-17
   7.640706        1.0133100E-17
   7.767550        1.0133088E-17
   7.894393        1.0133075E-17
   8.021236        1.0133060E-17
   8.148081        1.0133044E-17
   8.274924        1.0133028E-17
   8.401768        1.0133011E-17
   8.528611        1.0132996E-17
   8.655455        1.0132982E-17
   8.782298        1.0132969E-17
   8.909142        1.0132959E-17
   9.035986        1.0132952E-17
   9.162829        1.0132945E-17
   9.289673        1.0132941E-17
   9.416516        1.0132938E-17
   9.543361        1.0132935E-17
   9.670204        1.0132933E-17
   9.797048        1.0132929E-17
   9.923891        1.0132926E-17
   10.05073        1.0132921E-17
   10.17758        1.0132914E-17
   10.30442        1.0132905E-17
   10.43127        1.0132894E-17
   10.55811        1.0132881E-17
   10.68495        1.0132866E-17
   10.81180        1.0132849E-17
   10.93864        1.0132831E-17
   11.06548        1.0132812E-17
   11.19233        1.0132792E-17
   11.31917        1.0132771E-17
   11.44602        1.0132751E-17
   11.57286        1.0132730E-17
   11.69970        1.0132709E-17
   11.82655        1.0132688E-17
   11.95339        1.0132666E-17
   12.08023        1.0132644E-17
   12.20708        1.0132622E-17
   12.33392        1.0132599E-17
   12.46076        1.0132575E-17
   12.58761        1.0132551E-17
   12.71445        1.0132528E-17
   12.84130        1.0132505E-17
   12.96814        1.0132483E-17
   13.09498        1.0132462E-17
   13.22183        1.0132442E-17
   13.34867        1.0132426E-17
   13.47551        1.0132412E-17
   13.60236        1.0132399E-17
   13.72920        1.0132391E-17
   13.85604        1.0132385E-17
   13.98289        1.0132383E-17
   14.10973        1.0132383E-17
   14.23658        1.0132385E-17
   14.36342        1.0132390E-17
   14.49026        1.0132396E-17
   14.61711        1.0132403E-17
   14.74395        1.0132410E-17
   14.87079        1.0132416E-17
   14.99764        1.0132421E-17
   15.12448        1.0132424E-17
   15.25132        1.0132426E-17
   15.37817        1.0132427E-17
   15.50501        1.0132426E-17
   15.63186        1.0132424E-17
   15.75870        1.0132421E-17
   15.88554        1.0132417E-17
   16.01239        1.0132413E-17
   16.13923        1.0132409E-17
   16.26607        1.0132406E-17
   16.39292        1.0132403E-17
   16.51976        1.0132400E-17
   16.64660        1.0132398E-17
   16.77345        1.0132397E-17
   16.90029        1.0132395E-17
   17.02714        1.0132392E-17
   17.15398        1.0132388E-17
   17.28082        1.0132383E-17
   17.40767        1.0132377E-17
   17.53451        1.0132369E-17
   17.66135        1.0132359E-17
   17.78820        1.0132349E-17
   17.91504        1.0132336E-17
   18.04188        1.0132325E-17
   18.16873        1.0132313E-17
   18.29557        1.0132302E-17
   18.42241        1.0132294E-17
   18.54926        1.0132288E-17
   18.67610        1.0132286E-17
   18.80295        1.0132288E-17
   18.92979        1.0132292E-17
   19.05663        1.0132302E-17
   19.18348        1.0132314E-17
   19.31032        1.0132328E-17
   19.43716        1.0132345E-17
   19.56401        1.0132361E-17
   19.69085        1.0132377E-17
   19.81770        1.0132393E-17
   19.94454        1.0132406E-17
   20.07138        1.0132417E-17
   20.19823        1.0132426E-17
   20.32507        1.0132431E-17
   20.45191        1.0132435E-17
   20.57876        1.0132436E-17
   20.70560        1.0132437E-17
   20.83245        1.0132438E-17
   20.95929        1.0132438E-17
   21.08613        1.0132441E-17
   21.21297        1.0132445E-17
   21.33982        1.0132452E-17
   21.46666        1.0132462E-17
   21.59351        1.0132475E-17
   21.72035        1.0132492E-17
   21.84719        1.0132512E-17
   21.97404        1.0132534E-17
   22.10088        1.0132560E-17
   22.22772        1.0132587E-17
   22.35457        1.0132615E-17
   22.48141        1.0132645E-17
   22.60826        1.0132675E-17
   22.73510        1.0132707E-17
   22.86194        1.0132738E-17
   22.98879        1.0132771E-17
   23.11563        1.0132803E-17
   23.24247        1.0132835E-17
   23.36932        1.0132868E-17
   23.49616        1.0132903E-17
   23.62300        1.0132937E-17
   23.74985        1.0132972E-17
   23.87669        1.0133008E-17
   24.00353        1.0133044E-17
   24.13038        1.0133080E-17
   24.25722        1.0133114E-17
   24.38407        1.0133146E-17
   24.51091        1.0133178E-17
   24.63775        1.0133206E-17
   24.76460        1.0133232E-17
   24.89144        1.0133254E-17
   25.01828        1.0133275E-17
   25.14513        1.0133293E-17
   25.27197        1.0133309E-17
   25.39882        1.0133324E-17
   25.52566        1.0133339E-17
   25.65250        1.0133354E-17
   25.77935        1.0133370E-17
   25.90619        1.0133389E-17
   26.03303        1.0133411E-17
   26.15988        1.0133436E-17
   26.28672        1.0133464E-17
   26.41356        1.0133494E-17
   26.54041        1.0133527E-17
   26.66725        1.0133561E-17
   26.79410        1.0133595E-17
   26.92094        1.0133628E-17
   27.04778        1.0133659E-17
   27.17463        1.0133688E-17
   27.30147        1.0133713E-17
   27.42831        1.0133733E-17
   27.55516        1.0133750E-17
   27.68200        1.0133762E-17
   27.80884        1.0133771E-17
   27.93569        1.0133776E-17
   28.06253        1.0133778E-17
   28.18937        1.0133778E-17
   28.31622        1.0133777E-17
   28.44306        1.0133776E-17
   28.56991        1.0133773E-17
   28.69675        1.0133770E-17
   28.82359        1.0133767E-17
   28.95044        1.0133762E-17
   29.07728        1.0133757E-17
   29.20412        1.0133750E-17
   29.33097        1.0133740E-17
   29.45781        1.0133728E-17
   29.58466        1.0133712E-17
   29.71150        1.0133693E-17
   29.83834        1.0133671E-17
   29.96519        1.0133648E-17
   30.09203        1.0133622E-17
   30.21887        1.0133595E-17
   30.34572        1.0133570E-17
   30.47256        1.0133545E-17
   30.59941        1.0133523E-17
   30.72625        1.0133503E-17
   30.85309        1.0133488E-17
   30.97993        1.0133476E-17
   31.10678        1.0133469E-17
   31.23362        1.0133465E-17
   31.36047        1.0133463E-17
   31.48731        1.0133462E-17
   31.61415        1.0133463E-17
   31.74100        1.0133463E-17
   31.86784        1.0133461E-17
   31.99468        1.0133456E-17
   32.12153        1.0133446E-17
   32.24837        1.0133433E-17
   32.37521        1.0133416E-17
   32.50206        1.0133394E-17
   32.62890        1.0133369E-17
   32.75574        1.0133341E-17
   32.88259        1.0133311E-17
   33.00943        1.0133281E-17
   33.13628        1.0133252E-17
   33.26312        1.0133225E-17
   33.38997        1.0133201E-17
   33.51681        1.0133180E-17
   33.64365        1.0133164E-17
   33.77050        1.0133151E-17
   33.89734        1.0133143E-17
   34.02418        1.0133137E-17
   34.15103        1.0133135E-17
   34.27787        1.0133135E-17
   34.40471        1.0133135E-17
   34.53156        1.0133136E-17
   34.65840        1.0133139E-17
   34.78524        1.0133142E-17
   34.91209        1.0133145E-17
   35.03893        1.0133149E-17
   35.16578        1.0133154E-17
   35.29262        1.0133163E-17
   35.41946        1.0133173E-17
   35.54631        1.0133187E-17
   35.67315        1.0133205E-17
   35.80000        1.0133227E-17
   35.92684        1.0133253E-17
   36.05368        1.0133282E-17
   36.18052        1.0133313E-17
   36.30737        1.0133345E-17
   36.43421        1.0133377E-17
   36.56105        1.0133407E-17
   36.68790        1.0133434E-17
   36.81474        1.0133456E-17
   36.94159        1.0133474E-17
   37.06843        1.0133484E-17
   37.19527        1.0133489E-17
   37.32212        1.0133488E-17
   37.44896        1.0133481E-17
   37.57581        1.0133470E-17
   37.70265        1.0133456E-17
   37.82949        1.0133441E-17
   37.95634        1.0133427E-17
   38.08318        1.0133413E-17
   38.21002        1.0133402E-17
   38.33687        1.0133394E-17
   38.46371        1.0133391E-17
   38.59055        1.0133391E-17
   38.71740        1.0133394E-17
   38.84424        1.0133400E-17
   38.97108        1.0133408E-17
   39.09793        1.0133417E-17
   39.22477        1.0133427E-17
   39.35162        1.0133434E-17
   39.47846        1.0133440E-17
   39.60530        1.0133442E-17
   39.73215        1.0133442E-17
   39.85899        1.0133441E-17
   39.98583        1.0133435E-17
   40.11268        1.0133427E-17
   40.23952        1.0133418E-17
   40.36636        1.0133407E-17
   40.49321        1.0133394E-17
   40.62005        1.0133380E-17
   40.74689        1.0133365E-17
   40.87374        1.0133350E-17
   41.00058        1.0133333E-17
   41.12743        1.0133315E-17
   41.25427        1.0133295E-17
   41.38111        1.0133274E-17
   41.50796        1.0133250E-17
   41.63480        1.0133222E-17
   41.76165        1.0133192E-17
   41.88849        1.0133159E-17
   42.01533        1.0133124E-17
   42.14218        1.0133087E-17
   42.26902        1.0133050E-17
   42.39586        1.0133014E-17
   42.52271        1.0132979E-17
   42.64955        1.0132948E-17
   42.77639        1.0132919E-17
   42.90324        1.0132896E-17
   43.03008        1.0132876E-17
   43.15693        1.0132861E-17
   43.28377        1.0132849E-17
   43.41061        1.0132841E-17
   43.53746        1.0132835E-17
   43.66430        1.0132830E-17
   43.79114        1.0132826E-17
   43.91799        1.0132822E-17
   44.04483        1.0132817E-17
   44.17167        1.0132810E-17
   44.29852        1.0132802E-17
   44.42536        1.0132793E-17
   44.55220        1.0132782E-17
   44.67905        1.0132771E-17
   44.80589        1.0132757E-17
   44.93274        1.0132744E-17
   45.05958        1.0132731E-17
   45.18642        1.0132717E-17
   45.31327        1.0132702E-17
   45.44011        1.0132687E-17
   45.56696        1.0132671E-17
   45.69380        1.0132656E-17
   45.82064        1.0132638E-17
   45.94748        1.0132619E-17
   46.07433        1.0132599E-17
   46.20117        1.0132577E-17
   46.32801        1.0132555E-17
   46.45486        1.0132531E-17
   46.58170        1.0132506E-17
   46.70855        1.0132481E-17
   46.83539        1.0132456E-17
   46.96223        1.0132432E-17
   47.08908        1.0132410E-17
   47.21592        1.0132389E-17
   47.34277        1.0132370E-17
   47.46961        1.0132354E-17
   47.59645        1.0132340E-17
   47.72330        1.0132327E-17
   47.85014        1.0132316E-17
   47.97698        1.0132307E-17
   48.10383        1.0132299E-17
   48.23067        1.0132292E-17
   48.35751        1.0132285E-17
   48.48436        1.0132278E-17
   48.61120        1.0132270E-17
   48.73804        1.0132261E-17
   48.86489        1.0132250E-17
   48.99173        1.0132239E-17
   49.11858        1.0132225E-17
   49.24542        1.0132211E-17
   49.37226        1.0132193E-17
   49.49911        1.0132173E-17
   49.62595        1.0132152E-17
   49.75279        1.0132128E-17
   49.87964        1.0132102E-17
   50.00648        1.0132074E-17
   50.13332        1.0132044E-17
   50.26017        1.0132013E-17
   50.38701        1.0131981E-17
   50.51385        1.0131948E-17
   50.64070        1.0131915E-17
   50.76754        1.0131884E-17
   50.89439        1.0131853E-17
   51.02123        1.0131824E-17
   51.14808        1.0131799E-17
   51.27492        1.0131775E-17
   51.40176        1.0131756E-17
   51.52861        1.0131738E-17
   51.65545        1.0131724E-17
   51.78229        1.0131711E-17
   51.90914        1.0131700E-17
   52.03598        1.0131689E-17
   52.16282        1.0131678E-17
   52.28967        1.0131665E-17
   52.41651        1.0131650E-17
   52.54335        1.0131631E-17
   52.67020        1.0131608E-17
   52.79704        1.0131584E-17
   52.92389        1.0131555E-17
   53.05073        1.0131525E-17
   53.17757        1.0131493E-17
   53.30442        1.0131460E-17
   53.43126        1.0131427E-17
   53.55810        1.0131396E-17
   53.68495        1.0131366E-17
   53.81179        1.0131339E-17
   53.93863        1.0131315E-17
   54.06548        1.0131294E-17
   54.19232        1.0131276E-17
   54.31916        1.0131261E-17
   54.44601        1.0131249E-17
   54.57285        1.0131238E-17
   54.69970        1.0131230E-17
   54.82654        1.0131221E-17
   54.95338        1.0131214E-17
   55.08023        1.0131206E-17
   55.20707        1.0131201E-17
   55.33392        1.0131195E-17
   55.46076        1.0131191E-17
   55.58760        1.0131188E-17
   55.71444        1.0131187E-17
   55.84129        1.0131187E-17
   55.96813        1.0131189E-17
   56.09497        1.0131192E-17
   56.22182        1.0131197E-17
   56.34866        1.0131204E-17
   56.47551        1.0131211E-17
   56.60235        1.0131219E-17
   56.72919        1.0131225E-17
   56.85604        1.0131230E-17
   56.98288        1.0131235E-17
   57.10973        1.0131236E-17
   57.23657        1.0131237E-17
   57.36341        1.0131235E-17
   57.49026        1.0131233E-17
   57.61710        1.0131229E-17
   57.74394        1.0131224E-17
   57.87079        1.0131220E-17
   57.99763        1.0131215E-17
   58.12447        1.0131211E-17
   58.25132        1.0131209E-17
   58.37816        1.0131208E-17
   58.50500        1.0131208E-17
   58.63185        1.0131209E-17
   58.75869        1.0131211E-17
   58.88554        1.0131212E-17
   59.01238        1.0131215E-17
   59.13923        1.0131216E-17
   59.26607        1.0131218E-17
   59.39291        1.0131219E-17
   59.51975        1.0131219E-17
   59.64660        1.0131218E-17
   59.77344        1.0131215E-17
   59.90028        1.0131213E-17
   60.02713        1.0131210E-17
   60.15397        1.0131206E-17
   60.28082        1.0131201E-17
   60.40766        1.0131195E-17
   60.53450        1.0131189E-17
   60.66135        1.0131182E-17
   60.78819        1.0131175E-17
   60.91504        1.0131167E-17
   61.04188        1.0131158E-17
   61.16872        1.0131147E-17
   61.29557        1.0131135E-17
   61.42241        1.0131123E-17
   61.54925        1.0131108E-17
   61.67610        1.0131092E-17
   61.80294        1.0131075E-17
   61.92978        1.0131057E-17
   62.05663        1.0131038E-17
   62.18347        1.0131020E-17
   62.31031        1.0131003E-17
   62.43716        1.0130987E-17
   62.56400        1.0130974E-17
   62.69085        1.0130963E-17
   62.81769        1.0130955E-17
   62.94453        1.0130949E-17
   63.07138        1.0130947E-17
   63.19822        1.0130947E-17
   63.32506        1.0130947E-17
   63.45191        1.0130947E-17
   63.57875        1.0130947E-17
   63.70559        1.0130945E-17
   63.83244        1.0130942E-17
   63.95928        1.0130934E-17
   64.08613        1.0130924E-17
   64.21297        1.0130910E-17
   64.33981        1.0130895E-17
   64.46666        1.0130876E-17
   64.59350        1.0130857E-17
   64.72034        1.0130836E-17
   64.84719        1.0130815E-17
   64.97403        1.0130795E-17
   65.10088        1.0130777E-17
   65.22771        1.0130761E-17
   65.35456        1.0130746E-17
   65.48141        1.0130732E-17
   65.60825        1.0130720E-17
   65.73509        1.0130710E-17
   65.86194        1.0130699E-17
   65.98878        1.0130689E-17
   66.11562        1.0130679E-17
   66.24247        1.0130666E-17
   66.36931        1.0130654E-17
   66.49615        1.0130640E-17
   66.62300        1.0130627E-17
   66.74984        1.0130612E-17
   66.87669        1.0130600E-17
   67.00353        1.0130589E-17
   67.13037        1.0130580E-17
   67.25722        1.0130574E-17
   67.38406        1.0130572E-17
   67.51090        1.0130573E-17
   67.63775        1.0130577E-17
   67.76459        1.0130584E-17
   67.89143        1.0130594E-17
   68.01828        1.0130605E-17
   68.14512        1.0130616E-17
   68.27197        1.0130627E-17
   68.39881        1.0130636E-17
   68.52565        1.0130643E-17
   68.65250        1.0130647E-17
   68.77934        1.0130648E-17
   68.90618        1.0130646E-17
   69.03303        1.0130638E-17
   69.15987        1.0130627E-17
   69.28671        1.0130614E-17
   69.41356        1.0130598E-17
   69.54041        1.0130579E-17
   69.66724        1.0130559E-17
   69.79409        1.0130538E-17
   69.92093        1.0130517E-17
   70.04778        1.0130497E-17
   70.17462        1.0130477E-17
   70.30146        1.0130459E-17
   70.42831        1.0130441E-17
   70.55515        1.0130425E-17
   70.68199        1.0130409E-17
   70.80884        1.0130393E-17
   70.93568        1.0130378E-17
   71.06252        1.0130364E-17
   71.18937        1.0130349E-17
   71.31622        1.0130334E-17
   71.44305        1.0130319E-17
   71.56990        1.0130304E-17
   71.69675        1.0130291E-17
   71.82359        1.0130278E-17
   71.95043        1.0130268E-17
   72.07728        1.0130258E-17
   72.20412        1.0130250E-17
   72.33096        1.0130244E-17
   72.45780        1.0130237E-17
   72.58465        1.0130232E-17
   72.71149        1.0130226E-17
   72.83833        1.0130220E-17
   72.96518        1.0130212E-17
   73.09203        1.0130201E-17
   73.21886        1.0130187E-17
   73.34571        1.0130170E-17
   73.47256        1.0130150E-17
   73.59940        1.0130126E-17
   73.72624        1.0130100E-17
   73.85309        1.0130070E-17
   73.97993        1.0130038E-17
   74.10677        1.0130005E-17
   74.23362        1.0129971E-17
   74.36046        1.0129938E-17
   74.48730        1.0129903E-17
   74.61415        1.0129869E-17
   74.74099        1.0129837E-17
   74.86784        1.0129805E-17
   74.99467        1.0129775E-17
   75.12152        1.0129746E-17
   75.24837        1.0129720E-17
   75.37521        1.0129697E-17
   75.50205        1.0129676E-17
   75.62890        1.0129658E-17
   75.75574        1.0129643E-17
   75.88258        1.0129631E-17
   76.00943        1.0129625E-17
   76.13627        1.0129622E-17
   76.26311        1.0129623E-17
   76.38996        1.0129628E-17
   76.51680        1.0129638E-17
   76.64365        1.0129650E-17
   76.77049        1.0129665E-17
   76.89733        1.0129681E-17
   77.02418        1.0129698E-17
   77.15102        1.0129713E-17
   77.27786        1.0129723E-17
   77.40471        1.0129730E-17
   77.53155        1.0129731E-17
   77.65839        1.0129723E-17
   77.78524        1.0129708E-17
   77.91208        1.0129684E-17
   78.03893        1.0129651E-17
   78.16577        1.0129612E-17
   78.29261        1.0129567E-17
   78.41946        1.0129518E-17
   78.54630        1.0129468E-17
   78.67314        1.0129421E-17
   78.79999        1.0129377E-17
   78.92683        1.0129340E-17
   79.05367        1.0129314E-17
   79.18052        1.0129299E-17
   79.30737        1.0129296E-17
   79.43420        1.0129308E-17
   79.56105        1.0129331E-17
   79.68790        1.0129366E-17
   79.81474        1.0129411E-17
   79.94158        1.0129464E-17
   80.06842        1.0129524E-17
   80.19527        1.0129588E-17
   80.32211        1.0129653E-17
   80.44895        1.0129721E-17
   80.57580        1.0129787E-17
   80.70264        1.0129852E-17
   80.82948        1.0129914E-17
   80.95633        1.0129974E-17
   81.08318        1.0130028E-17
   81.21001        1.0130077E-17
   81.33686        1.0130118E-17
   81.46371        1.0130147E-17
   81.59055        1.0130162E-17
   81.71739        1.0130160E-17
   81.84424        1.0130136E-17
   81.97108        1.0130086E-17
   82.09792        1.0130005E-17
   82.22476        1.0129893E-17
   82.35161        1.0129746E-17
   82.47845        1.0129564E-17
   82.60529        1.0129351E-17
   82.73214        1.0129111E-17
   82.85899        1.0128853E-17
   82.98582        1.0128588E-17
   83.11267        1.0128327E-17
   83.23952        1.0128089E-17
   83.36636        1.0127890E-17
   83.49320        1.0127750E-17
   83.62005        1.0127688E-17
   83.74689        1.0127719E-17
   83.87373        1.0127860E-17
   84.00058        1.0128121E-17
   84.12742        1.0128507E-17
   84.25426        1.0129017E-17
   84.38111        1.0129641E-17
   84.50795        1.0130362E-17
   84.63480        1.0131155E-17
   84.76163        1.0131986E-17
   84.88848        1.0132812E-17
   85.01533        1.0133585E-17
   85.14217        1.0134254E-17
   85.26901        1.0134762E-17
   85.39586        1.0135056E-17
   85.52270        1.0135087E-17
   85.64954        1.0134811E-17
   85.77639        1.0134199E-17
   85.90323        1.0133234E-17
   86.03008        1.0131915E-17
   86.15692        1.0130266E-17
   86.28376        1.0128329E-17
   86.41061        1.0126168E-17
   86.53745        1.0123873E-17
   86.66429        1.0121548E-17
   86.79114        1.0119318E-17
   86.91798        1.0117318E-17
   87.04482        1.0115688E-17
   87.17167        1.0114568E-17
   87.29851        1.0114084E-17
   87.42535        1.0114347E-17
   87.55220        1.0115439E-17
   87.67904        1.0117407E-17
   87.80589        1.0120254E-17
   87.93273        1.0123936E-17
   88.05957        1.0128358E-17
   88.18642        1.0133368E-17
   88.31326        1.0138768E-17
   88.44010        1.0144312E-17
   88.56695        1.0149720E-17
   88.69379        1.0154684E-17
   88.82063        1.0158888E-17
   88.94748        1.0162020E-17
   89.07433        1.0163790E-17
   89.20116        1.0163954E-17
   89.32801        1.0162324E-17
   89.45486        1.0158793E-17
   89.58170        1.0153342E-17
   89.70854        1.0146053E-17
   89.83538        1.0137116E-17
   89.96223        1.0126825E-17
   90.08907        1.0115575E-17
   90.21591        1.0103851E-17
   90.34276        1.0092209E-17
   90.46960        1.0081252E-17
   90.59644        1.0071605E-17
   90.72329        1.0063878E-17
   90.85014        1.0058644E-17
   90.97697        1.0056391E-17
   91.10382        1.0057502E-17
   91.23067        1.0062220E-17
   91.35751        1.0070624E-17
   91.48435        1.0082616E-17
   91.61120        1.0097911E-17
   91.73804        1.0116036E-17
   91.86488        1.0136340E-17
   91.99173        1.0158017E-17
   92.11857        1.0180132E-17
   92.24541        1.0201660E-17
   92.37225        1.0221530E-17
   92.49910        1.0238673E-17
   92.62595        1.0252077E-17
   92.75278        1.0260835E-17
   92.87963        1.0264196E-17
   93.00648        1.0261613E-17
   93.13332        1.0252770E-17
   93.26016        1.0237615E-17
   93.38701        1.0216378E-17
   93.51385        1.0189566E-17
   93.64069        1.0157964E-17
   93.76754        1.0122603E-17
   93.89438        1.0084730E-17
   94.02122        1.0045768E-17
   94.14807        1.0007257E-17
   94.27491        9.9707987E-18
   94.40176        9.9380010E-18
   94.52859        9.9104063E-18
   94.65544        9.8894372E-18
   94.78229        9.8763413E-18
   94.90913        9.8721409E-18
   95.03597        9.8775903E-18
   95.16282        9.8931488E-18
   95.28966        9.9189485E-18
   95.41650        9.9547878E-18
   95.54335        1.0000122E-17
   95.67019        1.0054064E-17
   95.79704        1.0115395E-17
   95.92388        1.0182576E-17
   96.05072        1.0253765E-17
   96.17757        1.0326845E-17
   96.30441        1.0399449E-17
   96.43125        1.0468987E-17
   96.55810        1.0532698E-17
   96.68494        1.0587689E-17
   96.81178        1.0630995E-17
   96.93863        1.0659659E-17
   97.06547        1.0670815E-17
   97.19231        1.0661794E-17
   97.31916        1.0630250E-17
   97.44600        1.0574302E-17
   97.57285        1.0492684E-17
   97.69969        1.0384914E-17
   97.82653        1.0251461E-17
   97.95338        1.0093906E-17
   98.08022        9.9150848E-18
   98.20706        9.7192018E-18
   98.33391        9.5118996E-18
   98.46075        9.3002671E-18
   98.58759        9.0927738E-18
   98.71444        8.8991275E-18
   98.84129        8.7300245E-18
   98.96812        8.5968087E-18
   99.09497        8.5110342E-18
   99.22182        8.4839242E-18
   99.34866        8.5257630E-18
   99.47550        8.6452178E-18
   99.60234        8.8486347E-18
   99.72919        9.1393366E-18
   99.85603        9.5169594E-18
   99.98287        9.9768793E-18
   100.1097        1.0509768E-17
   100.2366        1.1101331E-17
   100.3634        1.1732259E-17
   100.4902        1.2378444E-17
   100.6171        1.3011467E-17
   100.7439        1.3599399E-17
   100.8708        1.4107890E-17
   100.9976        1.4501540E-17
   101.1245        1.4745532E-17
   101.2513        1.4807441E-17
   101.3782        1.4659189E-17
   101.5050        1.4279025E-17
   101.6318        1.3653458E-17
   101.7587        1.2779012E-17
   101.8855        1.1663711E-17
   102.0124        1.0328166E-17
   102.1392        8.8061623E-18
   102.2661        7.1446716E-18
   102.3929        5.4031959E-18
   102.5197        3.6524176E-18
   102.6466        1.9721353E-18
   102.7734        4.4851217E-19
   102.9003       -8.2930254E-19
   103.0271       -1.7730819E-18
   103.1540       -2.2998140E-18
   103.2808       -2.3362188E-18
   103.4077       -1.8232754E-18
   103.5345       -7.2055708E-19
   103.6613        9.8987587E-19
   103.7882        3.3002443E-18
   103.9150        6.1747093E-18
   104.0419        9.5481094E-18
   104.1687        1.3325951E-17
   104.2956        1.7385757E-17
   104.4224        2.1579842E-17
   104.5492        2.5739505E-17
   104.6761        2.9680567E-17
   104.8029        3.3210120E-17
   104.9298        3.6134263E-17
   105.0566        3.8266563E-17
   105.1835        3.9436921E-17
   105.3103        3.9500452E-17
   105.4371        3.8345979E-17
   105.5640        3.5903765E-17
   105.6908        3.2152064E-17
   105.8177        2.7122088E-17
   105.9445        2.0901095E-17
   106.0714        1.3633345E-17
   106.1982        5.5186848E-18
   106.3251       -3.1912744E-18
   106.4519       -1.2199433E-17
   106.5787       -2.1171775E-17
   106.7056       -2.9748075E-17
   106.8324       -3.7554364E-17
   106.9593       -4.4216814E-17
   107.0861       -4.9376502E-17
   107.2130       -5.2704564E-17
   107.3398       -5.3917131E-17
   107.4667       -5.2789472E-17
   107.5935       -4.9168707E-17
   107.7203       -4.2984649E-17
   107.8472       -3.4258128E-17
   107.9740       -2.3106508E-17