  -7.200000        1.0798153E-17
  -7.073156        1.0798153E-17
  -6.946313        1.0798152E-17
  -6.819469        1.0798151E-17
  -6.692626        1.0798151E-17
  -6.565782        1.0798151E-17
  -6.438938        1.0798151E-17
  -6.312095        1.0798151E-17
  -6.185251        1.0798151E-17
  -6.058407        1.0798151E-17
  -5.931563        1.0798152E-17
  -5.804720        1.0798153E-17
  -5.677876        1.0798155E-17
  -5.551033        1.0798156E-17
  -5.424189        1.0798158E-17
  -5.297346        1.0798160E-17
  -5.170502        1.0798162E-17
  -5.043658        1.0798165E-17
  -4.916814        1.0798168E-17
  -4.789971        1.0798170E-17
  -4.663127        1.0798174E-17
  -4.536283        1.0798176E-17
  -4.409440        1.0798179E-17
  -4.282596        1.0798180E-17
  -4.155753        1.0798183E-17
  -4.028909        1.0798185E-17
  -3.902065        1.0798188E-17
  -3.775222        1.0798191E-17
  -3.648378        1.0798194E-17
  -3.521534        1.0798197E-17
  -3.394691        1.0798199E-17
  -3.267847        1.0798200E-17
  -3.141004        1.0798202E-17
  -3.014160        1.0798203E-17
  -2.887316        1.0798205E-17
  -2.760473        1.0798208E-17
  -2.633629        1.0798213E-17
  -2.506785        1.0798217E-17
  -2.379942        1.0798221E-17
  -2.253098        1.0798226E-17
  -2.126254        1.0798231E-17
  -1.999411        1.0798237E-17
  -1.872567        1.0798242E-17
  -1.745723        1.0798245E-17
  -1.618880        1.0798248E-17
  -1.492036        1.0798251E-17
  -1.365193        1.0798255E-17
  -1.238349        1.0798257E-17
  -1.111505        1.0798260E-17
 -0.9846617        1.0798262E-17
 -0.8578180        1.0798266E-17
 -0.7309744        1.0798268E-17
 -0.6041307        1.0798270E-17
 -0.4772871        1.0798272E-17
 -0.3504435        1.0798273E-17
 -0.2235998        1.0798274E-17
 -9.6756198E-02    1.0798274E-17
  3.0087441E-02    1.0798274E-17
  0.1569311        1.0798274E-17
  0.2837747        1.0798275E-17
  0.4106184        1.0798276E-17
  0.5374620        1.0798277E-17
  0.6643056        1.0798278E-17
  0.7911493        1.0798280E-17
  0.9179929        1.0798280E-17
   1.044837        1.0798279E-17
   1.171680        1.0798276E-17
   1.298524        1.0798274E-17
   1.425367        1.0798271E-17
   1.552211        1.0798270E-17
   1.679055        1.0798271E-17
   1.805898        1.0798274E-17
   1.932742        1.0798278E-17
   2.059586        1.0798284E-17
   2.186429        1.0798290E-17
   2.313273        1.0798297E-17
   2.440117        1.0798304E-17
   2.566960        1.0798309E-17
   2.693804        1.0798314E-17
   2.820647        1.0798317E-17
   2.947491        1.0798321E-17
   3.074335        1.0798325E-17
   3.201178        1.0798329E-17
   3.328022        1.0798334E-17
   3.454866        1.0798338E-17
   3.581709        1.0798342E-17
   3.708553        1.0798343E-17
   3.835397        1.0798342E-17
   3.962240        1.0798341E-17
   4.089084        1.0798337E-17
   4.215928        1.0798334E-17
   4.342771        1.0798332E-17
   4.469615        1.0798330E-17
   4.596458        1.0798331E-17
   4.723302        1.0798333E-17
   4.850146        1.0798337E-17
   4.976989        1.0798341E-17
   5.103833        1.0798345E-17
   5.230677        1.0798351E-17
   5.357520        1.0798356E-17
   5.484364        1.0798361E-17
   5.611207        1.0798366E-17
   5.738051        1.0798371E-17
   5.864895        1.0798378E-17
   5.991738        1.0798387E-17
   6.118582        1.0798395E-17
   6.245426        1.0798404E-17
   6.372270        1.0798413E-17
   6.499113        1.0798420E-17
   6.625957        1.0798426E-17
   6.752800        1.0798430E-17
   6.879644        1.0798433E-17
   7.006487        1.0798436E-17
   7.133331        1.0798439E-17
   7.260175        1.0798444E-17
   7.387019        1.0798451E-17
   7.513862        1.0798459E-17
   7.640706        1.0798469E-17
   7.767550        1.0798480E-17
   7.894393        1.0798490E-17
   8.021236        1.0798497E-17
   8.148081        1.0798503E-17
   8.274924        1.0798506E-17
   8.401768        1.0798508E-17
   8.528611        1.0798510E-17
   8.655455        1.0798511E-17
   8.782298        1.0798514E-17
   8.909142        1.0798518E-17
   9.035986        1.0798523E-17
   9.162829        1.0798528E-17
   9.289673        1.0798532E-17
   9.416516        1.0798536E-17
   9.543361        1.0798538E-17
   9.670204        1.0798541E-17
   9.797048        1.0798542E-17
   9.923891        1.0798544E-17
   10.05073        1.0798548E-17
   10.17758        1.0798555E-17
   10.30442        1.0798562E-17
   10.43127        1.0798572E-17
   10.55811        1.0798580E-17
   10.68495        1.0798586E-17
   10.81180        1.0798591E-17
   10.93864        1.0798593E-17
   11.06548        1.0798595E-17
   11.19233        1.0798596E-17
   11.31917        1.0798597E-17
   11.44602        1.0798601E-17
   11.57286        1.0798605E-17
   11.69970        1.0798613E-17
   11.82655        1.0798621E-17
   11.95339        1.0798629E-17
   12.08023        1.0798635E-17
   12.20708        1.0798639E-17
   12.33392        1.0798642E-17
   12.46076        1.0798643E-17
   12.58761        1.0798642E-17
   12.71445        1.0798642E-17
   12.84130        1.0798644E-17
   12.96814        1.0798647E-17
   13.09498        1.0798651E-17
   13.22183        1.0798656E-17
   13.34867        1.0798660E-17
   13.47551        1.0798663E-17
   13.60236        1.0798664E-17
   13.72920        1.0798663E-17
   13.85604        1.0798659E-17
   13.98289        1.0798655E-17
   14.10973        1.0798653E-17
   14.23658        1.0798654E-17
   14.36342        1.0798658E-17
   14.49026        1.0798668E-17
   14.61711        1.0798680E-17
   14.74395        1.0798694E-17
   14.87079        1.0798710E-17
   14.99764        1.0798723E-17
   15.12448        1.0798735E-17
   15.25132        1.0798746E-17
   15.37817        1.0798755E-17
   15.50501        1.0798763E-17
   15.63186        1.0798771E-17
   15.75870        1.0798779E-17
   15.88554        1.0798788E-17
   16.01239        1.0798798E-17
   16.13923        1.0798807E-17
   16.26607        1.0798815E-17
   16.39292        1.0798821E-17
   16.51976        1.0798825E-17
   16.64660        1.0798826E-17
   16.77345        1.0798826E-17
   16.90029        1.0798826E-17
   17.02714        1.0798829E-17
   17.15398        1.0798833E-17
   17.28082        1.0798840E-17
   17.40767        1.0798852E-17
   17.53451        1.0798864E-17
   17.66135        1.0798878E-17
   17.78820        1.0798892E-17
   17.91504        1.0798904E-17
   18.04188        1.0798914E-17
   18.16873        1.0798922E-17
   18.29557        1.0798930E-17
   18.42241        1.0798937E-17
   18.54926        1.0798946E-17
   18.67610        1.0798957E-17
   18.80295        1.0798969E-17
   18.92979        1.0798982E-17
   19.05663        1.0798994E-17
   19.18348        1.0799006E-17
   19.31032        1.0799015E-17
   19.43716        1.0799022E-17
   19.56401        1.0799027E-17
   19.69085        1.0799031E-17
   19.81770        1.0799035E-17
   19.94454        1.0799040E-17
   20.07138        1.0799046E-17
   20.19823        1.0799056E-17
   20.32507        1.0799068E-17
   20.45191        1.0799082E-17
   20.57876        1.0799095E-17
   20.70560        1.0799109E-17
   20.83245        1.0799121E-17
   20.95929        1.0799131E-17
   21.08613        1.0799139E-17
   21.21297        1.0799147E-17
   21.33982        1.0799156E-17
   21.46666        1.0799165E-17
   21.59351        1.0799178E-17
   21.72035        1.0799191E-17
   21.84719        1.0799207E-17
   21.97404        1.0799223E-17
   22.10088        1.0799238E-17
   22.22772        1.0799252E-17
   22.35457        1.0799263E-17
   22.48141        1.0799271E-17
   22.60826        1.0799276E-17
   22.73510        1.0799280E-17
   22.86194        1.0799285E-17
   22.98879        1.0799291E-17
   23.11563        1.0799300E-17
   23.24247        1.0799309E-17
   23.36932        1.0799322E-17
   23.49616        1.0799336E-17
   23.62300        1.0799351E-17
   23.74985        1.0799364E-17
   23.87669        1.0799376E-17
   24.00353        1.0799386E-17
   24.13038        1.0799395E-17
   24.25722        1.0799403E-17
   24.38407        1.0799413E-17
   24.51091        1.0799425E-17
   24.63775        1.0799441E-17
   24.76460        1.0799459E-17
   24.89144        1.0799478E-17
   25.01828        1.0799496E-17
   25.14513        1.0799511E-17
   25.27197        1.0799522E-17
   25.39882        1.0799528E-17
   25.52566        1.0799531E-17
   25.65250        1.0799532E-17
   25.77935        1.0799533E-17
   25.90619        1.0799536E-17
   26.03303        1.0799544E-17
   26.15988        1.0799557E-17
   26.28672        1.0799573E-17
   26.41356        1.0799591E-17
   26.54041        1.0799610E-17
   26.66725        1.0799626E-17
   26.79410        1.0799639E-17
   26.92094        1.0799650E-17
   27.04778        1.0799658E-17
   27.17463        1.0799667E-17
   27.30147        1.0799677E-17
   27.42831        1.0799690E-17
   27.55516        1.0799707E-17
   27.68200        1.0799728E-17
   27.80884        1.0799752E-17
   27.93569        1.0799777E-17
   28.06253        1.0799800E-17
   28.18937        1.0799820E-17
   28.31622        1.0799836E-17
   28.44306        1.0799849E-17
   28.56991        1.0799859E-17
   28.69675        1.0799869E-17
   28.82359        1.0799879E-17
   28.95044        1.0799892E-17
   29.07728        1.0799907E-17
   29.20412        1.0799925E-17
   29.33097        1.0799943E-17
   29.45781        1.0799958E-17
   29.58466        1.0799970E-17
   29.71150        1.0799978E-17
   29.83834        1.0799984E-17
   29.96519        1.0799988E-17
   30.09203        1.0799994E-17
   30.21887        1.0800003E-17
   30.34572        1.0800016E-17
   30.47256        1.0800034E-17
   30.59941        1.0800056E-17
   30.72625        1.0800080E-17
   30.85309        1.0800103E-17
   30.97993        1.0800123E-17
   31.10678        1.0800138E-17
   31.23362        1.0800151E-17
   31.36047        1.0800158E-17
   31.48731        1.0800164E-17
   31.61415        1.0800172E-17
   31.74100        1.0800182E-17
   31.86784        1.0800195E-17
   31.99468        1.0800212E-17
   32.12153        1.0800230E-17
   32.24837        1.0800247E-17
   32.37521        1.0800261E-17
   32.50206        1.0800271E-17
   32.62890        1.0800276E-17
   32.75574        1.0800276E-17
   32.88259        1.0800276E-17
   33.00943        1.0800276E-17
   33.13628        1.0800281E-17
   33.26312        1.0800290E-17
   33.38997        1.0800305E-17
   33.51681        1.0800324E-17
   33.64365        1.0800343E-17
   33.77050        1.0800362E-17
   33.89734        1.0800376E-17
   34.02418        1.0800386E-17
   34.15103        1.0800394E-17
   34.27787        1.0800398E-17
   34.40471        1.0800403E-17
   34.53156        1.0800411E-17
   34.65840        1.0800423E-17
   34.78524        1.0800439E-17
   34.91209        1.0800460E-17
   35.03893        1.0800482E-17
   35.16578        1.0800504E-17
   35.29262        1.0800523E-17
   35.41946        1.0800539E-17
   35.54631        1.0800552E-17
   35.67315        1.0800562E-17
   35.80000        1.0800572E-17
   35.92684        1.0800584E-17
   36.05368        1.0800600E-17
   36.18052        1.0800620E-17
   36.30737        1.0800644E-17
   36.43421        1.0800670E-17
   36.56105        1.0800697E-17
   36.68790        1.0800721E-17
   36.81474        1.0800740E-17
   36.94159        1.0800757E-17
   37.06843        1.0800769E-17
   37.19527        1.0800780E-17
   37.32212        1.0800789E-17
   37.44896        1.0800802E-17
   37.57581        1.0800816E-17
   37.70265        1.0800834E-17
   37.82949        1.0800853E-17
   37.95634        1.0800873E-17
   38.08318        1.0800890E-17
   38.21002        1.0800905E-17
   38.33687        1.0800917E-17
   38.46371        1.0800927E-17
   38.59055        1.0800936E-17
   38.71740        1.0800949E-17
   38.84424        1.0800965E-17
   38.97108        1.0800986E-17
   39.09793        1.0801013E-17
   39.22477        1.0801045E-17
   39.35162        1.0801077E-17
   39.47846        1.0801108E-17
   39.60530        1.0801133E-17
   39.73215        1.0801153E-17
   39.85899        1.0801168E-17
   39.98583        1.0801178E-17
   40.11268        1.0801185E-17
   40.23952        1.0801193E-17
   40.36636        1.0801204E-17
   40.49321        1.0801217E-17
   40.62005        1.0801233E-17
   40.74689        1.0801252E-17
   40.87374        1.0801272E-17
   41.00058        1.0801290E-17
   41.12743        1.0801304E-17
   41.25427        1.0801314E-17
   41.38111        1.0801320E-17
   41.50796        1.0801326E-17
   41.63480        1.0801331E-17
   41.76165        1.0801339E-17
   41.88849        1.0801350E-17
   42.01533        1.0801364E-17
   42.14218        1.0801382E-17
   42.26902        1.0801401E-17
   42.39586        1.0801418E-17
   42.52271        1.0801434E-17
   42.64955        1.0801448E-17
   42.77639        1.0801458E-17
   42.90324        1.0801468E-17
   43.03008        1.0801478E-17
   43.15693        1.0801490E-17
   43.28377        1.0801506E-17
   43.41061        1.0801525E-17
   43.53746        1.0801548E-17
   43.66430        1.0801571E-17
   43.79114        1.0801592E-17
   43.91799        1.0801610E-17
   44.04483        1.0801624E-17
   44.17167        1.0801633E-17
   44.29852        1.0801640E-17
   44.42536        1.0801646E-17
   44.55220        1.0801654E-17
   44.67905        1.0801665E-17
   44.80589        1.0801680E-17
   44.93274        1.0801700E-17
   45.05958        1.0801724E-17
   45.18642        1.0801749E-17
   45.31327        1.0801773E-17
   45.44011        1.0801795E-17
   45.56696        1.0801814E-17
   45.69380        1.0801831E-17
   45.82064        1.0801846E-17
   45.94748        1.0801862E-17
   46.07433        1.0801880E-17
   46.20117        1.0801902E-17
   46.32801        1.0801928E-17
   46.45486        1.0801957E-17
   46.58170        1.0801989E-17
   46.70855        1.0802018E-17
   46.83539        1.0802046E-17
   46.96223        1.0802069E-17
   47.08908        1.0802087E-17
   47.21592        1.0802102E-17
   47.34277        1.0802115E-17
   47.46961        1.0802129E-17
   47.59645        1.0802145E-17
   47.72330        1.0802166E-17
   47.85014        1.0802190E-17
   47.97698        1.0802219E-17
   48.10383        1.0802248E-17
   48.23067        1.0802275E-17
   48.35751        1.0802300E-17
   48.48436        1.0802320E-17
   48.61120        1.0802338E-17
   48.73804        1.0802352E-17
   48.86489        1.0802364E-17
   48.99173        1.0802377E-17
   49.11858        1.0802392E-17
   49.24542        1.0802411E-17
   49.37226        1.0802434E-17
   49.49911        1.0802459E-17
   49.62595        1.0802484E-17
   49.75279        1.0802508E-17
   49.87964        1.0802530E-17
   50.00648        1.0802549E-17
   50.13332        1.0802565E-17
   50.26017        1.0802581E-17
   50.38701        1.0802597E-17
   50.51385        1.0802616E-17
   50.64070        1.0802638E-17
   50.76754        1.0802664E-17
   50.89439        1.0802691E-17
   51.02123        1.0802720E-17
   51.14808        1.0802749E-17
   51.27492        1.0802774E-17
   51.40176        1.0802795E-17
   51.52861        1.0802813E-17
   51.65545        1.0802826E-17
   51.78229        1.0802837E-17
   51.90914        1.0802849E-17
   52.03598        1.0802861E-17
   52.16282        1.0802875E-17
   52.28967        1.0802889E-17
   52.41651        1.0802906E-17
   52.54335        1.0802923E-17
   52.67020        1.0802937E-17
   52.79704        1.0802949E-17
   52.92389        1.0802960E-17
   53.05073        1.0802968E-17
   53.17757        1.0802976E-17
   53.30442        1.0802985E-17
   53.43126        1.0802996E-17
   53.55810        1.0803009E-17
   53.68495        1.0803024E-17
   53.81179        1.0803041E-17
   53.93863        1.0803058E-17
   54.06548        1.0803075E-17
   54.19232        1.0803089E-17
   54.31916        1.0803101E-17
   54.44601        1.0803111E-17
   54.57285        1.0803120E-17
   54.69970        1.0803129E-17
   54.82654        1.0803139E-17
   54.95338        1.0803153E-17
   55.08023        1.0803167E-17
   55.20707        1.0803184E-17
   55.33392        1.0803202E-17
   55.46076        1.0803220E-17
   55.58760        1.0803239E-17
   55.71444        1.0803256E-17
   55.84129        1.0803273E-17
   55.96813        1.0803291E-17
   56.09497        1.0803308E-17
   56.22182        1.0803328E-17
   56.34866        1.0803349E-17
   56.47551        1.0803372E-17
   56.60235        1.0803396E-17
   56.72919        1.0803421E-17
   56.85604        1.0803445E-17
   56.98288        1.0803465E-17
   57.10973        1.0803485E-17
   57.23657        1.0803502E-17
   57.36341        1.0803517E-17
   57.49026        1.0803532E-17
   57.61710        1.0803549E-17
   57.74394        1.0803568E-17
   57.87079        1.0803590E-17
   57.99763        1.0803616E-17
   58.12447        1.0803644E-17
   58.25132        1.0803674E-17
   58.37816        1.0803705E-17
   58.50500        1.0803736E-17
   58.63185        1.0803765E-17
   58.75869        1.0803791E-17
   58.88554        1.0803817E-17
   59.01238        1.0803840E-17
   59.13923        1.0803862E-17
   59.26607        1.0803885E-17
   59.39291        1.0803909E-17
   59.51975        1.0803933E-17
   59.64660        1.0803959E-17
   59.77344        1.0803986E-17
   59.90028        1.0804012E-17
   60.02713        1.0804037E-17
   60.15397        1.0804059E-17
   60.28082        1.0804080E-17
   60.40766        1.0804097E-17
   60.53450        1.0804114E-17
   60.66135        1.0804129E-17
   60.78819        1.0804146E-17
   60.91504        1.0804163E-17
   61.04188        1.0804182E-17
   61.16872        1.0804202E-17
   61.29557        1.0804224E-17
   61.42241        1.0804246E-17
   61.54925        1.0804269E-17
   61.67610        1.0804292E-17
   61.80294        1.0804313E-17
   61.92978        1.0804334E-17
   62.05663        1.0804354E-17
   62.18347        1.0804376E-17
   62.31031        1.0804397E-17
   62.43716        1.0804421E-17
   62.56400        1.0804445E-17
   62.69085        1.0804471E-17
   62.81769        1.0804497E-17
   62.94453        1.0804521E-17
   63.07138        1.0804546E-17
   63.19822        1.0804569E-17
   63.32506        1.0804592E-17
   63.45191        1.0804613E-17
   63.57875        1.0804636E-17
   63.70559        1.0804659E-17
   63.83244        1.0804685E-17
   63.95928        1.0804713E-17
   64.08613        1.0804744E-17
   64.21297        1.0804776E-17
   64.33981        1.0804807E-17
   64.46666        1.0804837E-17
   64.59350        1.0804865E-17
   64.72034        1.0804890E-17
   64.84719        1.0804912E-17
   64.97403        1.0804933E-17
   65.10088        1.0804952E-17
   65.22771        1.0804971E-17
   65.35456        1.0804991E-17
   65.48141        1.0805013E-17
   65.60825        1.0805035E-17
   65.73509        1.0805058E-17
   65.86194        1.0805082E-17
   65.98878        1.0805105E-17
   66.11562        1.0805129E-17
   66.24247        1.0805153E-17
   66.36931        1.0805179E-17
   66.49615        1.0805208E-17
   66.62300        1.0805240E-17
   66.74984        1.0805278E-17
   66.87669        1.0805321E-17
   67.00353        1.0805369E-17
   67.13037        1.0805419E-17
   67.25722        1.0805469E-17
   67.38406        1.0805515E-17
   67.51090        1.0805556E-17
   67.63775        1.0805591E-17
   67.76459        1.0805615E-17
   67.89143        1.0805628E-17
   68.01828        1.0805632E-17
   68.14512        1.0805622E-17
   68.27197        1.0805603E-17
   68.39881        1.0805570E-17
   68.52565        1.0805527E-17
   68.65250        1.0805474E-17
   68.77934        1.0805411E-17
   68.90618        1.0805340E-17
   69.03303        1.0805268E-17
   69.15987        1.0805196E-17
   69.28671        1.0805130E-17
   69.41356        1.0805078E-17
   69.54041        1.0805048E-17
   69.66724        1.0805044E-17
   69.79409        1.0805076E-17
   69.92093        1.0805147E-17
   70.04778        1.0805261E-17
   70.17462        1.0805418E-17
   70.30146        1.0805618E-17
   70.42831        1.0805859E-17
   70.55515        1.0806133E-17
   70.68199        1.0806434E-17
   70.80884        1.0806751E-17
   70.93568        1.0807072E-17
   71.06252        1.0807384E-17
   71.18937        1.0807670E-17
   71.31622        1.0807914E-17
   71.44305        1.0808097E-17
   71.56990        1.0808202E-17
   71.69675        1.0808211E-17
   71.82359        1.0808109E-17
   71.95043        1.0807886E-17
   72.07728        1.0807538E-17
   72.20412        1.0807065E-17
   72.33096        1.0806475E-17
   72.45780        1.0805782E-17
   72.58465        1.0805010E-17
   72.71149        1.0804186E-17
   72.83833        1.0803349E-17
   72.96518        1.0802535E-17
   73.09203        1.0801794E-17
   73.21886        1.0801171E-17
   73.34571        1.0800718E-17
   73.47256        1.0800480E-17
   73.59940        1.0800501E-17
   73.72624        1.0800817E-17
   73.85309        1.0801458E-17
   73.97993        1.0802435E-17
   74.10677        1.0803746E-17
   74.23362        1.0805372E-17
   74.36046        1.0807274E-17
   74.48730        1.0809394E-17
   74.61415        1.0811654E-17
   74.74099        1.0813962E-17
   74.86784        1.0816212E-17
   74.99467        1.0818285E-17
   75.12152        1.0820060E-17
   75.24837        1.0821414E-17
   75.37521        1.0822229E-17
   75.50205        1.0822400E-17
   75.62890        1.0821841E-17
   75.75574        1.0820488E-17
   75.88258        1.0818309E-17
   76.00943        1.0815310E-17
   76.13627        1.0811535E-17
   76.26311        1.0807074E-17
   76.38996        1.0802061E-17
   76.51680        1.0796670E-17
   76.64365        1.0791120E-17
   76.77049        1.0785657E-17
   76.89733        1.0780552E-17
   77.02418        1.0776094E-17
   77.15102        1.0772568E-17
   77.27786        1.0770245E-17
   77.40471        1.0769375E-17
   77.53155        1.0770159E-17
   77.65839        1.0772747E-17
   77.78524        1.0777220E-17
   77.91208        1.0783576E-17
   78.03893        1.0791728E-17
   78.16577        1.0801491E-17
   78.29261        1.0812582E-17
   78.41946        1.0824628E-17
   78.54630        1.0837162E-17
   78.67314        1.0849648E-17
   78.79999        1.0861491E-17
   78.92683        1.0872059E-17
   79.05367        1.0880718E-17
   79.18052        1.0886856E-17
   79.30737        1.0889912E-17
   79.43420        1.0889418E-17
   79.56105        1.0885022E-17
   79.68790        1.0876521E-17
   79.81474        1.0863887E-17
   79.94158        1.0847284E-17
   80.06842        1.0827084E-17
   80.19527        1.0803868E-17
   80.32211        1.0778426E-17
   80.44895        1.0751740E-17
   80.57580        1.0724954E-17
   80.70264        1.0699342E-17
   80.82948        1.0676259E-17
   80.95633        1.0657080E-17
   81.08318        1.0643141E-17
   81.21001        1.0635665E-17
   81.33686        1.0635689E-17
   81.46371        1.0643996E-17
   81.59055        1.0661049E-17
   81.71739        1.0686926E-17
   81.84424        1.0721286E-17
   81.97108        1.0763330E-17
   82.09792        1.0811796E-17
   82.22476        1.0864966E-17
   82.35161        1.0920705E-17
   82.47845        1.0976516E-17
   82.60529        1.1029627E-17
   82.73214        1.1077096E-17
   82.85899        1.1115938E-17
   82.98582        1.1143275E-17
   83.11267        1.1156489E-17
   83.23952        1.1153384E-17
   83.36636        1.1132347E-17
   83.49320        1.1092493E-17
   83.62005        1.1033793E-17
   83.74689        1.0957176E-17
   83.87373        1.0864587E-17
   84.00058        1.0759006E-17
   84.12742        1.0644411E-17
   84.25426        1.0525693E-17
   84.38111        1.0408506E-17
   84.50795        1.0299073E-17
   84.63480        1.0203923E-17
   84.76163        1.0129603E-17
   84.88848        1.0082344E-17
   85.01533        1.0067698E-17
   85.14217        1.0090187E-17
   85.26901        1.0152950E-17
   85.39586        1.0257417E-17
   85.52270        1.0403049E-17
   85.64954        1.0587136E-17
   85.77639        1.0804680E-17
   85.90323        1.1048396E-17
   86.03008        1.1308815E-17
   86.15692        1.1574517E-17
   86.28376        1.1832489E-17
   86.41061        1.2068600E-17
   86.53745        1.2268188E-17
   86.66429        1.2416744E-17
   86.79114        1.2500655E-17
   86.91798        1.2507987E-17
   87.04482        1.2429276E-17
   87.17167        1.2258277E-17
   87.29851        1.1992632E-17
   87.42535        1.1634424E-17
   87.55220        1.1190563E-17
   87.67904        1.0672982E-17
   87.80589        1.0098599E-17
   87.93273        9.4890305E-18
   88.05957        8.8700521E-18
   88.18642        8.2707862E-18
   88.31326        7.7226533E-18
   88.44010        7.2581012E-18
   88.56695        6.9091481E-18
   88.69379        6.7058047E-18
   88.82063        6.6744327E-18
   88.94748        6.8361089E-18
   89.07433        7.2050798E-18
   89.20116        7.7873918E-18
   89.32801        8.5797597E-18
   89.45486        9.5687790E-18
   89.58170        1.0730518E-17
   89.70854        1.2030573E-17
   89.83538        1.3424596E-17
   89.96223        1.4859345E-17
   90.08907        1.6274223E-17
   90.21591        1.7603303E-17
   90.34276        1.8777776E-17
   90.46960        1.9728739E-17
   90.59644        2.0390267E-17
   90.72329        2.0702587E-17
   90.85014        2.0615310E-17
   90.97697        2.0090485E-17
   91.10382        1.9105427E-17
   91.23067        1.7655095E-17
   91.35751        1.5753931E-17
   91.48435        1.3437035E-17
   91.61120        1.0760540E-17
   91.73804        7.8011635E-18
   91.86488        4.6548385E-18
   91.99173        1.4344497E-18
   92.11857       -1.7333221E-18
   92.24541       -4.7119769E-18
   92.37225       -7.3598974E-18
   92.49910       -9.5356430E-18
   92.62595       -1.1103671E-17
   92.75278       -1.1940288E-17
   92.87963       -1.1939621E-17
   93.00648       -1.1019394E-17
   93.13332       -9.1262456E-18
   93.26016       -6.2403816E-18
   93.38701       -2.3793309E-18
   93.51385        2.3994080E-18
   93.64069        7.9969994E-18
   93.76754        1.4273344E-17
   93.89438        2.1048684E-17
   94.02122        2.8106840E-17
   94.14807        3.5200046E-17
   94.27491        4.2055394E-17
   94.40176        4.8382803E-17
   94.52859        5.3884295E-17
   94.65544        5.8264465E-17
   94.78229        6.1241845E-17
   94.90913        6.2560834E-17
   95.03597        6.2003877E-17
   95.16282        5.9403420E-17
   95.28966        5.4653295E-17
   95.41650        4.7718987E-17
   95.54335        3.8646292E-17
   95.67019        2.7567938E-17
   95.79704        1.4707634E-17
   95.92388        3.8114836E-19
   96.05072       -1.5006003E-17
   96.17757       -3.0964567E-17
   96.30441       -4.6931439E-17
   96.43125       -6.2283583E-17
   96.55810       -7.6355845E-17
   96.68494       -8.8462513E-17
   96.81178       -9.7922164E-17
   96.93863       -1.0408527E-16
   97.06547       -1.0636371E-16
   97.19231       -1.0426121E-16
   97.31916       -9.7403694E-17
   97.44600       -8.5568056E-17
   97.57285       -6.8708103E-17
   97.69969       -4.6976166E-17
   97.82653       -2.0738890E-17
   97.95338        9.4141442E-18
   98.08022        4.2670234E-17
   98.20706        7.8002814E-17
   98.33391        1.1419091E-16
   98.46075        1.4984915E-16
   98.58759        1.8346818E-16
   98.71444        2.1346502E-16
   98.84129        2.3824218E-16
   98.96812        2.5625394E-16
   99.09497        2.6607759E-16
   99.22182        2.6648729E-16
   99.34866        2.5652681E-16
   99.47550        2.3557879E-16
   99.60234        2.0342597E-16
   99.72919        1.6030174E-16
   99.85603        1.0692575E-16
   99.98287        4.4522120E-17
   100.1097       -2.5182839E-17
   100.2366       -9.9985106E-17
   100.3634       -1.7725091E-16
   100.4902       -2.5398818E-16
   100.6171       -3.2694085E-16
   100.7439       -3.9270353E-16
   100.8708       -4.4785417E-16
   100.9976       -4.8909927E-16
   101.1245       -5.1342791E-16
   101.2513       -5.1826696E-16
   101.3782       -5.0163186E-16
   101.5050       -4.6226537E-16
   101.6318       -3.9975731E-16
   101.7587       -3.1463822E-16
   101.8855       -2.0844067E-16
   102.0124       -8.3722689E-17
   102.1392        5.5950715E-17
   102.2661        2.0607097E-16
   102.3929        3.6129500E-16
   102.5197        5.1559917E-16
   102.6466        6.6247495E-16
   102.7734        7.9516192E-16
   102.9003        9.0691013E-16
   103.0271        9.9126392E-16
   103.1540        1.0423566E-15
   103.2808        1.0552045E-15
   103.4077        1.0259880E-15
   103.5345        9.5230623E-16
   103.6613        8.3339408E-16
   103.7882        6.7028846E-16
   103.9150        4.6593355E-16
   104.0419        2.2521608E-16
   104.1687       -4.5076331E-17
   104.2956       -3.3637785E-16
   104.4224       -6.3854902E-16
   104.5492       -9.4016157E-16
   104.6761       -1.2288580E-15
   104.8029       -1.4917769E-15
   104.9298       -1.7160315E-15
   105.0566       -1.8892280E-15
   105.1835       -2.0000042E-15
   105.3103       -2.0385688E-15
   105.4371       -1.9972222E-15
   105.5640       -1.8708330E-15
   105.6908       -1.6572530E-15
   105.8177       -1.3576429E-15
   105.9445       -9.7669728E-16
   106.0714       -5.2274480E-16
   106.1982       -7.7146429E-18
   106.3251        5.5304216E-16
   106.4519        1.1410794E-15
   106.5787        1.7353300E-15
   106.7056        2.3127220E-15
   106.8324        2.8489208E-15
   106.9593        3.3191810E-15
   107.0861        3.6992834E-15
   107.2130        3.9665253E-15
   107.3398        4.1007347E-15
   107.4667        4.0852619E-15
   107.5935        3.9079208E-15
   107.7203        3.5618282E-15
   107.8472        3.0461058E-15
   107.9740        2.3664076E-15