  -7.200000        2.2721266E-18
  -7.073156        2.2721293E-18
  -6.946313        2.2721349E-18
  -6.819469        2.2721421E-18
  -6.692626        2.2721510E-18
  -6.565782        2.2721609E-18
  -6.438938        2.2721711E-18
  -6.312095        2.2721808E-18
  -6.185251        2.2721892E-18
  -6.058407        2.2721963E-18
  -5.931563        2.2722019E-18
  -5.804720        2.2722054E-18
  -5.677876        2.2722072E-18
  -5.551033        2.2722074E-18
  -5.424189        2.2722066E-18
  -5.297346        2.2722058E-18
  -5.170502        2.2722048E-18
  -5.043658        2.2722050E-18
  -4.916814        2.2722060E-18
  -4.789971        2.2722091E-18
  -4.663127        2.2722145E-18
  -4.536283        2.2722221E-18
  -4.409440        2.2722321E-18
  -4.282596        2.2722436E-18
  -4.155753        2.2722569E-18
  -4.028909        2.2722711E-18
  -3.902065        2.2722852E-18
  -3.775222        2.2722993E-18
  -3.648378        2.2723117E-18
  -3.521534        2.2723220E-18
  -3.394691        2.2723303E-18
  -3.267847        2.2723365E-18
  -3.141004        2.2723404E-18
  -3.014160        2.2723425E-18
  -2.887316        2.2723429E-18
  -2.760473        2.2723425E-18
  -2.633629        2.2723417E-18
  -2.506785        2.2723412E-18
  -2.379942        2.2723421E-18
  -2.253098        2.2723448E-18
  -2.126254        2.2723493E-18
  -1.999411        2.2723563E-18
  -1.872567        2.2723663E-18
  -1.745723        2.2723787E-18
  -1.618880        2.2723929E-18
  -1.492036        2.2724085E-18
  -1.365193        2.2724252E-18
  -1.238349        2.2724417E-18
  -1.111505        2.2724579E-18
 -0.9846617        2.2724728E-18
 -0.8578180        2.2724854E-18
 -0.7309744        2.2724959E-18
 -0.6041307        2.2725038E-18
 -0.4772871        2.2725087E-18
 -0.3504435        2.2725118E-18
 -0.2235998        2.2725131E-18
 -9.6756198E-02    2.2725137E-18
  3.0087441E-02    2.2725139E-18
  0.1569311        2.2725158E-18
  0.2837747        2.2725185E-18
  0.4106184        2.2725241E-18
  0.5374620        2.2725321E-18
  0.6643056        2.2725435E-18
  0.7911493        2.2725578E-18
  0.9179929        2.2725749E-18
   1.044837        2.2725944E-18
   1.171680        2.2726152E-18
   1.298524        2.2726365E-18
   1.425367        2.2726572E-18
   1.552211        2.2726769E-18
   1.679055        2.2726940E-18
   1.805898        2.2727083E-18
   1.932742        2.2727201E-18
   2.059586        2.2727282E-18
   2.186429        2.2727331E-18
   2.313273        2.2727358E-18
   2.440117        2.2727362E-18
   2.566960        2.2727364E-18
   2.693804        2.2727366E-18
   2.820647        2.2727377E-18
   2.947491        2.2727406E-18
   3.074335        2.2727466E-18
   3.201178        2.2727557E-18
   3.328022        2.2727677E-18
   3.454866        2.2727825E-18
   3.581709        2.2727997E-18
   3.708553        2.2728189E-18
   3.835397        2.2728390E-18
   3.962240        2.2728595E-18
   4.089084        2.2728789E-18
   4.215928        2.2728963E-18
   4.342771        2.2729110E-18
   4.469615        2.2729223E-18
   4.596458        2.2729298E-18
   4.723302        2.2729337E-18
   4.850146        2.2729352E-18
   4.976989        2.2729345E-18
   5.103833        2.2729335E-18
   5.230677        2.2729329E-18
   5.357520        2.2729347E-18
   5.484364        2.2729393E-18
   5.611207        2.2729476E-18
   5.738051        2.2729602E-18
   5.864895        2.2729765E-18
   5.991738        2.2729964E-18
   6.118582        2.2730187E-18
   6.245426        2.2730427E-18
   6.372270        2.2730661E-18
   6.499113        2.2730888E-18
   6.625957        2.2731089E-18
   6.752800        2.2731264E-18
   6.879644        2.2731405E-18
   7.006487        2.2731511E-18
   7.133331        2.2731587E-18
   7.260175        2.2731633E-18
   7.387019        2.2731653E-18
   7.513862        2.2731661E-18
   7.640706        2.2731668E-18
   7.767550        2.2731684E-18
   7.894393        2.2731713E-18
   8.021236        2.2731767E-18
   8.148081        2.2731852E-18
   8.274924        2.2731963E-18
   8.401768        2.2732110E-18
   8.528611        2.2732286E-18
   8.655455        2.2732476E-18
   8.782298        2.2732685E-18
   8.909142        2.2732900E-18
   9.035986        2.2733109E-18
   9.162829        2.2733301E-18
   9.289673        2.2733475E-18
   9.416516        2.2733626E-18
   9.543361        2.2733752E-18
   9.670204        2.2733851E-18
   9.797048        2.2733922E-18
   9.923891        2.2733965E-18
   10.05073        2.2733988E-18
   10.17758        2.2733998E-18
   10.30442        2.2734007E-18
   10.43127        2.2734017E-18
   10.55811        2.2734050E-18
   10.68495        2.2734102E-18
   10.81180        2.2734195E-18
   10.93864        2.2734321E-18
   11.06548        2.2734488E-18
   11.19233        2.2734693E-18
   11.31917        2.2734927E-18
   11.44602        2.2735181E-18
   11.57286        2.2735444E-18
   11.69970        2.2735692E-18
   11.82655        2.2735924E-18
   11.95339        2.2736130E-18
   12.08023        2.2736298E-18
   12.20708        2.2736424E-18
   12.33392        2.2736505E-18
   12.46076        2.2736550E-18
   12.58761        2.2736558E-18
   12.71445        2.2736546E-18
   12.84130        2.2736527E-18
   12.96814        2.2736507E-18
   13.09498        2.2736496E-18
   13.22183        2.2736515E-18
   13.34867        2.2736571E-18
   13.47551        2.2736668E-18
   13.60236        2.2736809E-18
   13.72920        2.2736984E-18
   13.85604        2.2737199E-18
   13.98289        2.2737433E-18
   14.10973        2.2737673E-18
   14.23658        2.2737911E-18
   14.36342        2.2738122E-18
   14.49026        2.2738306E-18
   14.61711        2.2738444E-18
   14.74395        2.2738548E-18
   14.87079        2.2738606E-18
   14.99764        2.2738628E-18
   15.12448        2.2738624E-18
   15.25132        2.2738612E-18
   15.37817        2.2738595E-18
   15.50501        2.2738589E-18
   15.63186        2.2738604E-18
   15.75870        2.2738647E-18
   15.88554        2.2738728E-18
   16.01239        2.2738854E-18
   16.13923        2.2739017E-18
   16.26607        2.2739218E-18
   16.39292        2.2739445E-18
   16.51976        2.2739691E-18
   16.64660        2.2739937E-18
   16.77345        2.2740177E-18
   16.90029        2.2740390E-18
   17.02714        2.2740566E-18
   17.15398        2.2740705E-18
   17.28082        2.2740791E-18
   17.40767        2.2740835E-18
   17.53451        2.2740831E-18
   17.66135        2.2740800E-18
   17.78820        2.2740744E-18
   17.91504        2.2740686E-18
   18.04188        2.2740636E-18
   18.16873        2.2740607E-18
   18.29557        2.2740620E-18
   18.42241        2.2740674E-18
   18.54926        2.2740777E-18
   18.67610        2.2740932E-18
   18.80295        2.2741135E-18
   18.92979        2.2741377E-18
   19.05663        2.2741639E-18
   19.18348        2.2741914E-18
   19.31032        2.2742179E-18
   19.43716        2.2742425E-18
   19.56401        2.2742632E-18
   19.69085        2.2742797E-18
   19.81770        2.2742909E-18
   19.94454        2.2742969E-18
   20.07138        2.2742977E-18
   20.19823        2.2742948E-18
   20.32507        2.2742895E-18
   20.45191        2.2742830E-18
   20.57876        2.2742785E-18
   20.70560        2.2742766E-18
   20.83245        2.2742787E-18
   20.95929        2.2742859E-18
   21.08613        2.2742981E-18
   21.21297        2.2743151E-18
   21.33982        2.2743354E-18
   21.46666        2.2743581E-18
   21.59351        2.2743815E-18
   21.72035        2.2744044E-18
   21.84719        2.2744253E-18
   21.97404        2.2744435E-18
   22.10088        2.2744582E-18
   22.22772        2.2744679E-18
   22.35457        2.2744733E-18
   22.48141        2.2744745E-18
   22.60826        2.2744727E-18
   22.73510        2.2744688E-18
   22.86194        2.2744638E-18
   22.98879        2.2744597E-18
   23.11563        2.2744578E-18
   23.24247        2.2744597E-18
   23.36932        2.2744661E-18
   23.49616        2.2744766E-18
   23.62300        2.2744919E-18
   23.74985        2.2745118E-18
   23.87669        2.2745351E-18
   24.00353        2.2745608E-18
   24.13038        2.2745870E-18
   24.25722        2.2746129E-18
   24.38407        2.2746371E-18
   24.51091        2.2746582E-18
   24.63775        2.2746753E-18
   24.76460        2.2746884E-18
   24.89144        2.2746962E-18
   25.01828        2.2746999E-18
   25.14513        2.2746985E-18
   25.27197        2.2746940E-18
   25.39882        2.2746869E-18
   25.52566        2.2746784E-18
   25.65250        2.2746708E-18
   25.77935        2.2746652E-18
   25.90619        2.2746627E-18
   26.03303        2.2746656E-18
   26.15988        2.2746741E-18
   26.28672        2.2746884E-18
   26.41356        2.2747074E-18
   26.54041        2.2747310E-18
   26.66725        2.2747568E-18
   26.79410        2.2747835E-18
   26.92094        2.2748089E-18
   27.04778        2.2748311E-18
   27.17463        2.2748486E-18
   27.30147        2.2748598E-18
   27.42831        2.2748644E-18
   27.55516        2.2748623E-18
   27.68200        2.2748544E-18
   27.80884        2.2748426E-18
   27.93569        2.2748290E-18
   28.06253        2.2748149E-18
   28.18937        2.2748036E-18
   28.31622        2.2747957E-18
   28.44306        2.2747938E-18
   28.56991        2.2747986E-18
   28.69675        2.2748100E-18
   28.82359        2.2748273E-18
   28.95044        2.2748503E-18
   29.07728        2.2748770E-18
   29.20412        2.2749051E-18
   29.33097        2.2749328E-18
   29.45781        2.2749589E-18
   29.58466        2.2749816E-18
   29.71150        2.2749990E-18
   29.83834        2.2750114E-18
   29.96519        2.2750192E-18
   30.09203        2.2750223E-18
   30.21887        2.2750215E-18
   30.34572        2.2750188E-18
   30.47256        2.2750151E-18
   30.59941        2.2750116E-18
   30.72625        2.2750095E-18
   30.85309        2.2750089E-18
   30.97993        2.2750110E-18
   31.10678        2.2750159E-18
   31.23362        2.2750230E-18
   31.36047        2.2750319E-18
   31.48731        2.2750424E-18
   31.61415        2.2750534E-18
   31.74100        2.2750641E-18
   31.86784        2.2750738E-18
   31.99468        2.2750821E-18
   32.12153        2.2750889E-18
   32.24837        2.2750931E-18
   32.37521        2.2750953E-18
   32.50206        2.2750949E-18
   32.62890        2.2750922E-18
   32.75574        2.2750875E-18
   32.88259        2.2750813E-18
   33.00943        2.2750740E-18
   33.13628        2.2750668E-18
   33.26312        2.2750602E-18
   33.38997        2.2750558E-18
   33.51681        2.2750540E-18
   33.64365        2.2750565E-18
   33.77050        2.2750629E-18
   33.89734        2.2750738E-18
   34.02418        2.2750893E-18
   34.15103        2.2751088E-18
   34.27787        2.2751315E-18
   34.40471        2.2751559E-18
   34.53156        2.2751799E-18
   34.65840        2.2752029E-18
   34.78524        2.2752231E-18
   34.91209        2.2752399E-18
   35.03893        2.2752525E-18
   35.16578        2.2752602E-18
   35.29262        2.2752633E-18
   35.41946        2.2752628E-18
   35.54631        2.2752604E-18
   35.67315        2.2752566E-18
   35.80000        2.2752540E-18
   35.92684        2.2752533E-18
   36.05368        2.2752562E-18
   36.18052        2.2752631E-18
   36.30737        2.2752748E-18
   36.43421        2.2752910E-18
   36.56105        2.2753110E-18
   36.68790        2.2753340E-18
   36.81474        2.2753584E-18
   36.94159        2.2753834E-18
   37.06843        2.2754078E-18
   37.19527        2.2754303E-18
   37.32212        2.2754502E-18
   37.44896        2.2754672E-18
   37.57581        2.2754816E-18
   37.70265        2.2754932E-18
   37.82949        2.2755031E-18
   37.95634        2.2755116E-18
   38.08318        2.2755199E-18
   38.21002        2.2755288E-18
   38.33687        2.2755387E-18
   38.46371        2.2755501E-18
   38.59055        2.2755631E-18
   38.71740        2.2755770E-18
   38.84424        2.2755929E-18
   38.97108        2.2756115E-18
   39.09793        2.2756320E-18
   39.22477        2.2756543E-18
   39.35162        2.2756787E-18
   39.47846        2.2757044E-18
   39.60530        2.2757308E-18
   39.73215        2.2757579E-18
   39.85899        2.2757848E-18
   39.98583        2.2758098E-18
   40.11268        2.2758328E-18
   40.23952        2.2758524E-18
   40.36636        2.2758685E-18
   40.49321        2.2758810E-18
   40.62005        2.2758894E-18
   40.74689        2.2758948E-18
   40.87374        2.2758983E-18
   41.00058        2.2759006E-18
   41.12743        2.2759037E-18
   41.25427        2.2759076E-18
   41.38111        2.2759138E-18
   41.50796        2.2759225E-18
   41.63480        2.2759339E-18
   41.76165        2.2759482E-18
   41.88849        2.2759643E-18
   42.01533        2.2759817E-18
   42.14218        2.2759990E-18
   42.26902        2.2760156E-18
   42.39586        2.2760301E-18
   42.52271        2.2760420E-18
   42.64955        2.2760514E-18
   42.77639        2.2760582E-18
   42.90324        2.2760633E-18
   43.03008        2.2760669E-18
   43.15693        2.2760696E-18
   43.28377        2.2760735E-18
   43.41061        2.2760795E-18
   43.53746        2.2760882E-18
   43.66430        2.2761002E-18
   43.79114        2.2761150E-18
   43.91799        2.2761326E-18
   44.04483        2.2761521E-18
   44.17167        2.2761723E-18
   44.29852        2.2761930E-18
   44.42536        2.2762133E-18
   44.55220        2.2762321E-18
   44.67905        2.2762497E-18
   44.80589        2.2762658E-18
   44.93274        2.2762809E-18
   45.05958        2.2762956E-18
   45.18642        2.2763111E-18
   45.31327        2.2763285E-18
   45.44011        2.2763477E-18
   45.56696        2.2763694E-18
   45.69380        2.2763942E-18
   45.82064        2.2764215E-18
   45.94748        2.2764505E-18
   46.07433        2.2764811E-18
   46.20117        2.2765131E-18
   46.32801        2.2765452E-18
   46.45486        2.2765770E-18
   46.58170        2.2766087E-18
   46.70855        2.2766397E-18
   46.83539        2.2766699E-18
   46.96223        2.2766992E-18
   47.08908        2.2767272E-18
   47.21592        2.2767540E-18
   47.34277        2.2767795E-18
   47.46961        2.2768035E-18
   47.59645        2.2768262E-18
   47.72330        2.2768481E-18
   47.85014        2.2768694E-18
   47.97698        2.2768899E-18
   48.10383        2.2769098E-18
   48.23067        2.2769286E-18
   48.35751        2.2769468E-18
   48.48436        2.2769641E-18
   48.61120        2.2769811E-18
   48.73804        2.2769976E-18
   48.86489        2.2770138E-18
   48.99173        2.2770291E-18
   49.11858        2.2770431E-18
   49.24542        2.2770558E-18
   49.37226        2.2770671E-18
   49.49911        2.2770769E-18
   49.62595        2.2770837E-18
   49.75279        2.2770878E-18
   49.87964        2.2770886E-18
   50.00648        2.2770866E-18
   50.13332        2.2770820E-18
   50.26017        2.2770750E-18
   50.38701        2.2770673E-18
   50.51385        2.2770593E-18
   50.64070        2.2770520E-18
   50.76754        2.2770467E-18
   50.89439        2.2770440E-18
   51.02123        2.2770434E-18
   51.14808        2.2770454E-18
   51.27492        2.2770500E-18
   51.40176        2.2770556E-18
   51.52861        2.2770620E-18
   51.65545        2.2770682E-18
   51.78229        2.2770733E-18
   51.90914        2.2770769E-18
   52.03598        2.2770791E-18
   52.16282        2.2770793E-18
   52.28967        2.2770787E-18
   52.41651        2.2770771E-18
   52.54335        2.2770746E-18
   52.67020        2.2770721E-18
   52.79704        2.2770706E-18
   52.92389        2.2770696E-18
   53.05073        2.2770696E-18
   53.17757        2.2770706E-18
   53.30442        2.2770721E-18
   53.43126        2.2770740E-18
   53.55810        2.2770764E-18
   53.68495        2.2770791E-18
   53.81179        2.2770818E-18
   53.93863        2.2770839E-18
   54.06548        2.2770862E-18
   54.19232        2.2770880E-18
   54.31916        2.2770897E-18
   54.44601        2.2770924E-18
   54.57285        2.2770959E-18
   54.69970        2.2771008E-18
   54.82654        2.2771068E-18
   54.95338        2.2771143E-18
   55.08023        2.2771232E-18
   55.20707        2.2771325E-18
   55.33392        2.2771420E-18
   55.46076        2.2771513E-18
   55.58760        2.2771587E-18
   55.71444        2.2771654E-18
   55.84129        2.2771699E-18
   55.96813        2.2771734E-18
   56.09497        2.2771757E-18
   56.22182        2.2771784E-18
   56.34866        2.2771807E-18
   56.47551        2.2771838E-18
   56.60235        2.2771871E-18
   56.72919        2.2771912E-18
   56.85604        2.2771956E-18
   56.98288        2.2771995E-18
   57.10973        2.2772022E-18
   57.23657        2.2772036E-18
   57.36341        2.2772030E-18
   57.49026        2.2772003E-18
   57.61710        2.2771964E-18
   57.74394        2.2771912E-18
   57.87079        2.2771860E-18
   57.99763        2.2771813E-18
   58.12447        2.2771780E-18
   58.25132        2.2771751E-18
   58.37816        2.2771734E-18
   58.50500        2.2771726E-18
   58.63185        2.2771712E-18
   58.75869        2.2771680E-18
   58.88554        2.2771637E-18
   59.01238        2.2771565E-18
   59.13923        2.2771465E-18
   59.26607        2.2771343E-18
   59.39291        2.2771211E-18
   59.51975        2.2771077E-18
   59.64660        2.2770948E-18
   59.77344        2.2770845E-18
   59.90028        2.2770775E-18
   60.02713        2.2770752E-18
   60.15397        2.2770775E-18
   60.28082        2.2770845E-18
   60.40766        2.2770957E-18
   60.53450        2.2771101E-18
   60.66135        2.2771257E-18
   60.78819        2.2771416E-18
   60.91504        2.2771554E-18
   61.04188        2.2771666E-18
   61.16872        2.2771747E-18
   61.29557        2.2771792E-18
   61.42241        2.2771811E-18
   61.54925        2.2771811E-18
   61.67610        2.2771809E-18
   61.80294        2.2771817E-18
   61.92978        2.2771846E-18
   62.05663        2.2771896E-18
   62.18347        2.2771974E-18
   62.31031        2.2772078E-18
   62.43716        2.2772195E-18
   62.56400        2.2772315E-18
   62.69085        2.2772423E-18
   62.81769        2.2772514E-18
   62.94453        2.2772586E-18
   63.07138        2.2772628E-18
   63.19822        2.2772650E-18
   63.32506        2.2772665E-18
   63.45191        2.2772683E-18
   63.57875        2.2772710E-18
   63.70559        2.2772752E-18
   63.83244        2.2772814E-18
   63.95928        2.2772894E-18
   64.08613        2.2772990E-18
   64.21297        2.2773083E-18
   64.33981        2.2773163E-18
   64.46666        2.2773229E-18
   64.59350        2.2773262E-18
   64.72034        2.2773269E-18
   64.84719        2.2773244E-18
   64.97403        2.2773200E-18
   65.10088        2.2773145E-18
   65.22771        2.2773091E-18
   65.35456        2.2773058E-18
   65.48141        2.2773068E-18
   65.60825        2.2773124E-18
   65.73509        2.2773229E-18
   65.86194        2.2773384E-18
   65.98878        2.2773581E-18
   66.11562        2.2773802E-18
   66.24247        2.2774019E-18
   66.36931        2.2774212E-18
   66.49615        2.2774354E-18
   66.62300        2.2774433E-18
   66.74984        2.2774435E-18
   66.87669        2.2774369E-18
   67.00353        2.2774239E-18
   67.13037        2.2774073E-18
   67.25722        2.2773895E-18
   67.38406        2.2773740E-18
   67.51090        2.2773631E-18
   67.63775        2.2773597E-18
   67.76459        2.2773655E-18
   67.89143        2.2773819E-18
   68.01828        2.2774086E-18
   68.14512        2.2774443E-18
   68.27197        2.2774884E-18
   68.39881        2.2775392E-18
   68.52565        2.2775940E-18
   68.65250        2.2776507E-18
   68.77934        2.2777068E-18
   68.90618        2.2777603E-18
   69.03303        2.2778085E-18
   69.15987        2.2778499E-18
   69.28671        2.2778819E-18
   69.41356        2.2779024E-18
   69.54041        2.2779086E-18
   69.66724        2.2778989E-18
   69.79409        2.2778707E-18
   69.92093        2.2778232E-18
   70.04778        2.2777551E-18
   70.17462        2.2776675E-18
   70.30146        2.2775614E-18
   70.42831        2.2774418E-18
   70.55515        2.2773126E-18
   70.68199        2.2771809E-18
   70.80884        2.2770539E-18
   70.93568        2.2769412E-18
   71.06252        2.2768521E-18
   71.18937        2.2767956E-18
   71.31622        2.2767820E-18
   71.44305        2.2768182E-18
   71.56990        2.2769110E-18
   71.69675        2.2770649E-18
   71.82359        2.2772803E-18
   71.95043        2.2775568E-18
   72.07728        2.2778889E-18
   72.20412        2.2782688E-18
   72.33096        2.2786847E-18
   72.45780        2.2791208E-18
   72.58465        2.2795590E-18
   72.71149        2.2799778E-18
   72.83833        2.2803537E-18
   72.96518        2.2806625E-18
   73.09203        2.2808775E-18
   73.21886        2.2809754E-18
   73.34571        2.2809321E-18
   73.47256        2.2807293E-18
   73.59940        2.2803537E-18
   73.72624        2.2797974E-18
   73.85309        2.2790625E-18
   73.97993        2.2781592E-18
   74.10677        2.2771079E-18
   74.23362        2.2759399E-18
   74.36046        2.2746958E-18
   74.48730        2.2734265E-18
   74.61415        2.2721897E-18
   74.74099        2.2710494E-18
   74.86784        2.2700731E-18
   74.99467        2.2693309E-18
   75.12152        2.2688886E-18
   75.24837        2.2688088E-18
   75.37521        2.2691427E-18
   75.50205        2.2699331E-18
   75.62890        2.2712043E-18
   75.75574        2.2729647E-18
   75.88258        2.2752014E-18
   76.00943        2.2778782E-18
   76.13627        2.2809350E-18
   76.26311        2.2842849E-18
   76.38996        2.2878176E-18
   76.51680        2.2913974E-18
   76.64365        2.2948674E-18
   76.77049        2.2980531E-18
   76.89733        2.3007675E-18
   77.02418        2.3028181E-18
   77.15102        2.3040144E-18
   77.27786        2.3041780E-18
   77.40471        2.3031521E-18
   77.53155        2.3008147E-18
   77.65839        2.2970861E-18
   77.78524        2.2919438E-18
   77.91208        2.2854291E-18
   78.03893        2.2776548E-18
   78.16577        2.2688135E-18
   78.29261        2.2591785E-18
   78.41946        2.2491010E-18
   78.54630        2.2390059E-18
   78.67314        2.2293789E-18
   78.79999        2.2207550E-18
   78.92683        2.2136937E-18
   79.05367        2.2087581E-18
   79.18052        2.2064848E-18
   79.30737        2.2073517E-18
   79.43420        2.2117467E-18
   79.56105        2.2199350E-18
   79.68790        2.2320255E-18
   79.81474        2.2479454E-18
   79.94158        2.2674160E-18
   80.06842        2.2899420E-18
   80.19527        2.3148041E-18
   80.32211        2.3410669E-18
   80.44895        2.3675989E-18
   80.57580        2.3931053E-18
   80.70264        2.4161735E-18
   80.82948        2.4353343E-18
   80.95633        2.4491292E-18
   81.08318        2.4561931E-18
   81.21001        2.4553343E-18
   81.33686        2.4456242E-18
   81.46371        2.4264768E-18
   81.59055        2.3977249E-18
   81.71739        2.3596791E-18
   81.84424        2.3131707E-18
   81.97108        2.2595694E-18
   82.09792        2.2007761E-18
   82.22476        2.1391836E-18
   82.35161        2.0776074E-18
   82.47845        2.0191832E-18
   82.60529        1.9672396E-18
   82.73214        1.9251405E-18
   82.85899        1.8961114E-18
   82.98582        1.8830527E-18
   83.11267        1.8883510E-18
   83.23952        1.9136945E-18
   83.36636        1.9599108E-18
   83.49320        2.0268316E-18
   83.62005        2.1131946E-18
   83.74689        2.2165986E-18
   83.87373        2.3335110E-18
   84.00058        2.4593409E-18
   84.12742        2.5885724E-18
   84.25426        2.7149619E-18
   84.38111        2.8317970E-18
   84.50795        2.9322002E-18
   84.63480        3.0094756E-18
   84.76163        3.0574765E-18
   84.88848        3.0709790E-18
   85.01533        3.0460407E-18
   85.14217        2.9803272E-18
   85.26901        2.8733802E-18
   85.39586        2.7268135E-18
   85.52270        2.5444138E-18
   85.64954        2.3321390E-18
   85.77639        2.0980042E-18
   85.90323        1.8518440E-18
   86.03008        1.6049658E-18
   86.15692        1.3696943E-18
   86.28376        1.1588251E-18
   86.41061        9.8501195E-19
   86.53745        8.6010897E-19
   86.66429        7.9450264E-19
   86.79114        7.9646936E-19
   86.91798        8.7158729E-19
   87.04482        1.0222434E-18
   87.17167        1.2472676E-18
   87.29851        1.5417180E-18
   87.42535        1.8968422E-18
   87.55220        2.3002288E-18
   87.67904        2.7361530E-18
   87.80589        3.1861138E-18
   87.93273        3.6295440E-18
   88.05957        4.0446729E-18
   88.18642        4.4095009E-18
   88.31326        4.7028555E-18
   88.44010        4.9054648E-18
   88.56695        5.0010058E-18
   88.69379        4.9770734E-18
   88.82063        4.8260136E-18
   88.94748        4.5455721E-18
   89.07433        4.1393239E-18
   89.20116        3.6168398E-18
   89.32801        2.9935844E-18
   89.45486        2.2905262E-18
   89.58170        1.5334723E-18
   89.70854        7.5215187E-19
   89.83538       -2.0920088E-20
   89.96223       -7.5175162E-19
   90.08907       -1.4062959E-18
   90.21591       -1.9519204E-18
   90.34276       -2.3588594E-18
   90.46960       -2.6015790E-18
   90.59644       -2.6599889E-18
   90.72329       -2.5204468E-18
   90.85014       -2.1765111E-18
   90.97697       -1.6293984E-18
   91.10382       -8.8814434E-19
   91.23067        3.0549854E-20
   91.35751        1.1027619E-18
   91.48435        2.2980579E-18
   91.61120        3.5804256E-18
   91.73804        4.9093852E-18
   91.86488        6.2412154E-18
   91.99173        7.5302462E-18
   92.11857        8.7301552E-18
   92.24541        9.7952362E-18
   92.37225        1.0681588E-17
   92.49910        1.1348207E-17
   92.62595        1.1757987E-17
   92.75278        1.1878607E-17
   92.87963        1.1683360E-17
   93.00648        1.1151915E-17
   93.13332        1.0271087E-17
   93.26016        9.0356032E-18
   93.38701        7.4489442E-18
   93.51385        5.5242310E-18
   93.64069        3.2851830E-18
   93.76754        7.6710347E-19
   93.89438       -1.9821574E-18
   94.02122       -4.9013582E-18
   94.14807       -7.9152441E-18
   94.27491       -1.0934302E-17
   94.40176       -1.3855054E-17
   94.52859       -1.6561048E-17
   94.65544       -1.8924713E-17
   94.78229       -2.0810251E-17
   94.90913       -2.2077618E-17
   95.03597       -2.2587700E-17
   95.16282       -2.2208635E-17
   95.28966       -2.0823187E-17
   95.41650       -1.8336955E-17
   95.54335       -1.4687129E-17
   95.67019       -9.8513704E-18
   95.79704       -3.8562920E-18
   95.92388        3.2149925E-18
   96.05072        1.1216951E-17
   96.17757        1.9937973E-17
   96.30441        2.9099602E-17
   96.43125        3.8359270E-17
   96.55810        4.7316978E-17
   96.68494        5.5526206E-17
   96.81178        6.2509172E-17
   96.93863        6.7776288E-17
   97.06547        7.0849303E-17
   97.19231        7.1287497E-17
   97.31916        6.8715826E-17
   97.44600        6.2853696E-17
   97.57285        5.3542855E-17
   97.69969        4.0772722E-17
   97.82653        2.4701183E-17
   97.95338        5.6692486E-18
   98.08022       -1.5792287E-17
   98.20706       -3.8965531E-17
   98.33391       -6.2958649E-17
   98.46075       -8.6730145E-17
   98.58759       -1.0912423E-16
   98.71444       -1.2891677E-16
   98.84129       -1.4487043E-16
   98.96812       -1.5579714E-16
   99.09497       -1.6062508E-16
   99.22182       -1.5846719E-16
   99.34866       -1.4868716E-16
   99.47550       -1.3095951E-16
   99.60234       -1.0531913E-16
   99.72919       -7.2196860E-17
   99.85603       -3.2437534E-17
   99.98287        1.2702361E-17
   100.1097        6.1579209E-17
   100.2366        1.1220982E-16
   100.3634        1.6234146E-16
   100.4902        2.0954280E-16
   100.6171        2.5131232E-16
   100.7439        2.8520004E-16
   100.8708        3.0893671E-16
   100.9976        3.2056425E-16
   101.1245        3.1856030E-16
   101.2513        3.0194948E-16
   101.3782        2.7039425E-16
   101.5050        2.2425928E-16
   101.6318        1.6464337E-16
   101.7587        9.3375350E-17
   101.8855        1.2971624E-17
   102.0124       -7.3444659E-17
   102.1392       -1.6226094E-16
   102.2661       -2.4952476E-16
   102.3929       -3.3111923E-16
   102.5197       -4.0295647E-16
   102.6466       -4.6117942E-16
   102.7734       -5.0236195E-16
   102.9003       -5.2369585E-16
   103.0271       -5.2315550E-16
   103.1540       -4.9962900E-16
   103.2808       -4.5300910E-16
   103.4077       -3.8423752E-16
   103.5345       -2.9529832E-16
   103.6613       -1.8916059E-16
   103.7882       -6.9671530E-17
   103.9150        5.8595006E-17
   104.0419        1.9052745E-16
   104.1687        3.2069350E-16
   104.2956        4.4357453E-16
   104.4224        5.5380544E-16
   104.5492        6.4640822E-16
   104.6761        7.1700783E-16
   104.8029        7.6202022E-16
   104.9298        7.7880407E-16
   105.0566        7.6577035E-16
   105.1835        7.2244674E-16
   105.3103        6.4949443E-16
   105.4371        5.4868169E-16
   105.5640        4.2281553E-16
   105.6908        2.7563945E-16
   105.8177        1.1170311E-16
   105.9445       -6.3787861E-17
   106.0714       -2.4513430E-16
   106.1982       -4.2631160E-16
   106.3251       -6.0113748E-16
   106.4519       -7.6343524E-16
   106.5787       -9.0719071E-16
   106.7056       -1.0267018E-15
   106.8324       -1.1167223E-15
   106.9593       -1.1726004E-15
   107.0861       -1.1904166E-15
   107.2130       -1.1671210E-15
   107.3398       -1.1006723E-15
   107.4667       -9.9017728E-16
   107.5935       -8.3602787E-16
   107.7203       -6.4003080E-16
   107.8472       -4.0552052E-16
   107.9740       -1.3744405E-16