  -7.200000       -7.9128879E-20
  -7.073156       -7.9124743E-20
  -6.946313       -7.9116355E-20
  -6.819469       -7.9105001E-20
  -6.692626       -7.9090855E-20
  -6.565782       -7.9074835E-20
  -6.438938       -7.9059273E-20
  -6.312095       -7.9044617E-20
  -6.185251       -7.9031621E-20
  -6.058407       -7.9021094E-20
  -5.931563       -7.9013081E-20
  -5.804720       -7.9007852E-20
  -5.677876       -7.9005326E-20
  -5.551033       -7.9004537E-20
  -5.424189       -7.9005196E-20
  -5.297346       -7.9006541E-20
  -5.170502       -7.9007626E-20
  -5.043658       -7.9006754E-20
  -4.916814       -7.9004156E-20
  -4.789971       -7.8998495E-20
  -4.663127       -7.8990204E-20
  -4.536283       -7.8978681E-20
  -4.409440       -7.8964858E-20
  -4.282596       -7.8948696E-20
  -4.155753       -7.8931396E-20
  -4.028909       -7.8913244E-20
  -3.902065       -7.8895537E-20
  -3.775222       -7.8879116E-20
  -3.648378       -7.8864634E-20
  -3.521534       -7.8852989E-20
  -3.394691       -7.8844446E-20
  -3.267847       -7.8839386E-20
  -3.141004       -7.8836930E-20
  -3.014160       -7.8837589E-20
  -2.887316       -7.8840717E-20
  -2.760473       -7.8844937E-20
  -2.633629       -7.8849370E-20
  -2.506785       -7.8852944E-20
  -2.379942       -7.8855322E-20
  -2.253098       -7.8855186E-20
  -2.126254       -7.8852381E-20
  -1.999411       -7.8845822E-20
  -1.872567       -7.8836200E-20
  -1.745723       -7.8823624E-20
  -1.618880       -7.8808276E-20
  -1.492036       -7.8791344E-20
  -1.365193       -7.8773909E-20
  -1.238349       -7.8756991E-20
  -1.111505       -7.8741287E-20
 -0.9846617       -7.8727755E-20
 -0.8578180       -7.8716943E-20
 -0.7309744       -7.8709415E-20
 -0.6041307       -7.8705479E-20
 -0.4772871       -7.8705227E-20
 -0.3504435       -7.8707715E-20
 -0.2235998       -7.8712058E-20
 -9.6756198E-02   -7.8716892E-20
  3.0087441E-02   -7.8721945E-20
  0.1569311       -7.8725441E-20
  0.2837747       -7.8726928E-20
  0.4106184       -7.8725765E-20
  0.5374620       -7.8721247E-20
  0.6643056       -7.8712956E-20
  0.7911493       -7.8701098E-20
  0.9179929       -7.8686292E-20
   1.044837       -7.8669542E-20
   1.171680       -7.8651221E-20
   1.298524       -7.8633120E-20
   1.425367       -7.8616984E-20
   1.552211       -7.8602954E-20
   1.679055       -7.8592440E-20
   1.805898       -7.8586572E-20
   1.932742       -7.8584491E-20
   2.059586       -7.8586850E-20
   2.186429       -7.8592711E-20
   2.313273       -7.8601481E-20
   2.440117       -7.8611413E-20
   2.566960       -7.8621107E-20
   2.693804       -7.8629682E-20
   2.820647       -7.8635363E-20
   2.947491       -7.8637424E-20
   3.074335       -7.8635511E-20
   3.201178       -7.8628965E-20
   3.328022       -7.8619007E-20
   3.454866       -7.8605442E-20
   3.581709       -7.8589545E-20
   3.708553       -7.8573072E-20
   3.835397       -7.8557259E-20
   3.962240       -7.8543055E-20
   4.089084       -7.8531946E-20
   4.215928       -7.8524340E-20
   4.342771       -7.8521774E-20
   4.469615       -7.8523383E-20
   4.596458       -7.8528902E-20
   4.723302       -7.8537665E-20
   4.850146       -7.8548308E-20
   4.976989       -7.8559682E-20
   5.103833       -7.8570326E-20
   5.230677       -7.8578701E-20
   5.357520       -7.8584407E-20
   5.484364       -7.8586514E-20
   5.611207       -7.8584956E-20
   5.738051       -7.8578998E-20
   5.864895       -7.8569666E-20
   5.991738       -7.8557459E-20
   6.118582       -7.8543326E-20
   6.245426       -7.8528501E-20
   6.372270       -7.8514058E-20
   6.499113       -7.8501094E-20
   6.625957       -7.8490722E-20
   6.752800       -7.8483155E-20
   6.879644       -7.8479536E-20
   7.006487       -7.8478780E-20
   7.133331       -7.8482011E-20
   7.260175       -7.8487459E-20
   7.387019       -7.8494639E-20
   7.513862       -7.8502768E-20
   7.640706       -7.8510775E-20
   7.767550       -7.8517257E-20
   7.894393       -7.8522020E-20
   8.021236       -7.8524288E-20
   8.148081       -7.8523099E-20
   8.274924       -7.8519506E-20
   8.401768       -7.8513832E-20
   8.528611       -7.8506193E-20
   8.655455       -7.8497320E-20
   8.782298       -7.8488583E-20
   8.909142       -7.8480938E-20
   9.035986       -7.8474269E-20
   9.162829       -7.8469455E-20
   9.289673       -7.8467238E-20
   9.416516       -7.8467859E-20
   9.543361       -7.8470153E-20
   9.670204       -7.8474728E-20
   9.797048       -7.8480092E-20
   9.923891       -7.8485940E-20
   10.05073       -7.8491246E-20
   10.17758       -7.8495298E-20
   10.30442       -7.8497482E-20
   10.43127       -7.8497521E-20
   10.55811       -7.8495207E-20
   10.68495       -7.8490509E-20
   10.81180       -7.8483885E-20
   10.93864       -7.8476130E-20
   11.06548       -7.8467574E-20
   11.19233       -7.8459102E-20
   11.31917       -7.8451561E-20
   11.44602       -7.8445215E-20
   11.57286       -7.8441214E-20
   11.69970       -7.8440096E-20
   11.82655       -7.8441706E-20
   11.95339       -7.8445822E-20
   12.08023       -7.8452019E-20
   12.20708       -7.8459535E-20
   12.33392       -7.8467012E-20
   12.46076       -7.8474586E-20
   12.58761       -7.8480803E-20
   12.71445       -7.8485255E-20
   12.84130       -7.8487052E-20
   12.96814       -7.8486548E-20
   13.09498       -7.8483691E-20
   13.22183       -7.8478909E-20
   13.34867       -7.8473035E-20
   13.47551       -7.8466321E-20
   13.60236       -7.8459723E-20
   13.72920       -7.8453848E-20
   13.85604       -7.8449344E-20
   13.98289       -7.8446565E-20
   14.10973       -7.8445686E-20
   14.23658       -7.8446507E-20
   14.36342       -7.8449583E-20
   14.49026       -7.8453590E-20
   14.61711       -7.8457829E-20
   14.74395       -7.8462269E-20
   14.87079       -7.8465636E-20
   14.99764       -7.8467949E-20
   15.12448       -7.8468983E-20
   15.25132       -7.8468253E-20
   15.37817       -7.8465603E-20
   15.50501       -7.8461422E-20
   15.63186       -7.8455419E-20
   15.75870       -7.8448737E-20
   15.88554       -7.8441686E-20
   16.01239       -7.8434326E-20
   16.13923       -7.8428212E-20
   16.26607       -7.8423094E-20
   16.39292       -7.8420082E-20
   16.51976       -7.8418945E-20
   16.64660       -7.8419979E-20
   16.77345       -7.8423475E-20
   16.90029       -7.8428768E-20
   17.02714       -7.8435275E-20
   17.15398       -7.8441841E-20
   17.28082       -7.8447599E-20
   17.40767       -7.8452207E-20
   17.53451       -7.8454494E-20
   17.66135       -7.8454449E-20
   17.78820       -7.8451405E-20
   17.91504       -7.8445344E-20
   18.04188       -7.8437531E-20
   18.16873       -7.8428341E-20
   18.29557       -7.8418738E-20
   18.42241       -7.8409859E-20
   18.54926       -7.8402065E-20
   18.67610       -7.8396986E-20
   18.80295       -7.8394724E-20
   18.92979       -7.8396049E-20
   19.05663       -7.8399713E-20
   19.18348       -7.8405743E-20
   19.31032       -7.8412580E-20
   19.43716       -7.8419197E-20
   19.56401       -7.8423992E-20
   19.69085       -7.8425433E-20
   19.81770       -7.8422726E-20
   19.94454       -7.8415294E-20
   20.07138       -7.8402854E-20
   20.19823       -7.8386420E-20
   20.32507       -7.8366975E-20
   20.45191       -7.8346063E-20
   20.57876       -7.8325377E-20
   20.70560       -7.8306966E-20
   20.83245       -7.8292897E-20
   20.95929       -7.8284011E-20
   21.08613       -7.8280929E-20
   21.21297       -7.8283966E-20
   21.33982       -7.8291617E-20
   21.46666       -7.8303379E-20
   21.59351       -7.8318165E-20
   21.72035       -7.8333481E-20
   21.84719       -7.8348202E-20
   21.97404       -7.8360254E-20
   22.10088       -7.8369198E-20
   22.22772       -7.8373987E-20
   22.35457       -7.8374109E-20
   22.48141       -7.8369566E-20
   22.60826       -7.8361721E-20
   22.73510       -7.8351194E-20
   22.86194       -7.8339258E-20
   22.98879       -7.8327755E-20
   23.11563       -7.8317758E-20
   23.24247       -7.8310126E-20
   23.36932       -7.8305583E-20
   23.49616       -7.8304839E-20
   23.62300       -7.8307722E-20
   23.74985       -7.8312995E-20
   23.87669       -7.8320472E-20
   24.00353       -7.8329022E-20
   24.13038       -7.8337054E-20
   24.25722       -7.8344299E-20
   24.38407       -7.8348803E-20
   24.51091       -7.8350334E-20
   24.63775       -7.8348712E-20
   24.76460       -7.8344305E-20
   24.89144       -7.8336983E-20
   25.01828       -7.8328000E-20
   25.14513       -7.8317183E-20
   25.27197       -7.8306164E-20
   25.39882       -7.8295301E-20
   25.52566       -7.8285801E-20
   25.65250       -7.8278047E-20
   25.77935       -7.8272689E-20
   25.90619       -7.8269910E-20
   26.03303       -7.8269484E-20
   26.15988       -7.8271248E-20
   26.28672       -7.8274673E-20
   26.41356       -7.8279397E-20
   26.54041       -7.8284341E-20
   26.66725       -7.8289194E-20
   26.79410       -7.8292800E-20
   26.92094       -7.8295107E-20
   27.04778       -7.8295256E-20
   27.17463       -7.8293931E-20
   27.30147       -7.8291372E-20
   27.42831       -7.8287675E-20
   27.55516       -7.8283688E-20
   27.68200       -7.8279714E-20
   27.80884       -7.8276218E-20
   27.93569       -7.8273775E-20
   28.06253       -7.8273161E-20
   28.18937       -7.8274531E-20
   28.31622       -7.8278131E-20
   28.44306       -7.8283346E-20
   28.56991       -7.8290758E-20
   28.69675       -7.8298862E-20
   28.82359       -7.8308452E-20
   28.95044       -7.8317855E-20
   29.07728       -7.8326734E-20
   29.20412       -7.8334372E-20
   29.33097       -7.8339917E-20
   29.45781       -7.8343452E-20
   29.58466       -7.8344163E-20
   29.71150       -7.8342308E-20
   29.83834       -7.8339019E-20
   29.96519       -7.8334036E-20
   30.09203       -7.8328188E-20
   30.21887       -7.8322133E-20
   30.34572       -7.8316168E-20
   30.47256       -7.8311237E-20
   30.59941       -7.8307974E-20
   30.72625       -7.8306209E-20
   30.85309       -7.8305628E-20
   30.97993       -7.8306397E-20
   31.10678       -7.8308445E-20
   31.23362       -7.8311140E-20
   31.36047       -7.8314442E-20
   31.48731       -7.8317984E-20
   31.61415       -7.8322230E-20
   31.74100       -7.8325590E-20
   31.86784       -7.8328013E-20
   31.99468       -7.8329862E-20
   32.12153       -7.8330256E-20
   32.24837       -7.8329803E-20
   32.37521       -7.8328789E-20
   32.50206       -7.8327115E-20
   32.62890       -7.8325222E-20
   32.75574       -7.8323024E-20
   32.88259       -7.8320549E-20
   33.00943       -7.8318074E-20
   33.13628       -7.8316013E-20
   33.26312       -7.8313273E-20
   33.38997       -7.8310520E-20
   33.51681       -7.8307735E-20
   33.64365       -7.8305053E-20
   33.77050       -7.8302746E-20
   33.89734       -7.8301117E-20
   34.02418       -7.8299747E-20
   34.15103       -7.8299786E-20
   34.27787       -7.8300458E-20
   34.40471       -7.8301951E-20
   34.53156       -7.8304096E-20
   34.65840       -7.8306132E-20
   34.78524       -7.8308665E-20
   34.91209       -7.8310630E-20
   35.03893       -7.8311793E-20
   35.16578       -7.8312084E-20
   35.29262       -7.8311198E-20
   35.41946       -7.8309014E-20
   35.54631       -7.8305311E-20
   35.67315       -7.8301589E-20
   35.80000       -7.8297298E-20
   35.92684       -7.8293349E-20
   36.05368       -7.8290409E-20
   36.18052       -7.8288858E-20
   36.30737       -7.8288845E-20
   36.43421       -7.8290965E-20
   36.56105       -7.8294926E-20
   36.68790       -7.8299973E-20
   36.81474       -7.8305705E-20
   36.94159       -7.8311289E-20
   37.06843       -7.8315690E-20
   37.19527       -7.8318882E-20
   37.32212       -7.8318837E-20
   37.44896       -7.8315845E-20
   37.57581       -7.8308924E-20
   37.70265       -7.8298881E-20
   37.82949       -7.8286364E-20
   37.95634       -7.8271668E-20
   38.08318       -7.8256585E-20
   38.21002       -7.8241560E-20
   38.33687       -7.8228144E-20
   38.46371       -7.8216318E-20
   38.59055       -7.8206941E-20
   38.71740       -7.8200563E-20
   38.84424       -7.8197345E-20
   38.97108       -7.8197157E-20
   39.09793       -7.8199044E-20
   39.22477       -7.8202036E-20
   39.35162       -7.8206237E-20
   39.47846       -7.8209998E-20
   39.60530       -7.8212757E-20
   39.73215       -7.8212900E-20
   39.85899       -7.8211219E-20
   39.98583       -7.8207310E-20
   40.11268       -7.8200576E-20
   40.23952       -7.8192912E-20
   40.36636       -7.8184717E-20
   40.49321       -7.8176529E-20
   40.62005       -7.8169408E-20
   40.74689       -7.8163960E-20
   40.87374       -7.8160238E-20
   41.00058       -7.8158829E-20
   41.12743       -7.8158861E-20
   41.25427       -7.8159908E-20
   41.38111       -7.8161834E-20
   41.50796       -7.8163443E-20
   41.63480       -7.8163947E-20
   41.76165       -7.8163133E-20
   41.88849       -7.8160425E-20
   42.01533       -7.8155811E-20
   42.14218       -7.8148851E-20
   42.26902       -7.8140114E-20
   42.39586       -7.8129845E-20
   42.52271       -7.8118375E-20
   42.64955       -7.8105760E-20
   42.77639       -7.8092978E-20
   42.90324       -7.8080667E-20
   43.03008       -7.8068479E-20
   43.15693       -7.8056776E-20
   43.28377       -7.8045783E-20
   43.41061       -7.8035469E-20
   43.53746       -7.8025504E-20
   43.66430       -7.8015623E-20
   43.79114       -7.8006886E-20
   43.91799       -7.7997858E-20
   44.04483       -7.7989671E-20
   44.17167       -7.7981690E-20
   44.29852       -7.7974439E-20
   44.42536       -7.7968002E-20
   44.55220       -7.7962497E-20
   44.67905       -7.7957514E-20
   44.80589       -7.7952835E-20
   44.93274       -7.7948182E-20
   45.05958       -7.7943187E-20
   45.18642       -7.7937015E-20
   45.31327       -7.7929668E-20
   45.44011       -7.7920478E-20
   45.56696       -7.7909699E-20
   45.69380       -7.7896871E-20
   45.82064       -7.7882493E-20
   45.94748       -7.7866757E-20
   46.07433       -7.7851086E-20
   46.20117       -7.7835317E-20
   46.32801       -7.7820822E-20
   46.45486       -7.7808072E-20
   46.58170       -7.7798204E-20
   46.70855       -7.7790966E-20
   46.83539       -7.7787108E-20
   46.96223       -7.7785247E-20
   47.08908       -7.7785002E-20
   47.21592       -7.7785435E-20
   47.34277       -7.7785913E-20
   47.46961       -7.7784840E-20
   47.59645       -7.7780898E-20
   47.72330       -7.7773854E-20
   47.85014       -7.7764606E-20
   47.97698       -7.7753123E-20
   48.10383       -7.7739591E-20
   48.23067       -7.7725755E-20
   48.35751       -7.7712223E-20
   48.48436       -7.7700752E-20
   48.61120       -7.7691336E-20
   48.73804       -7.7685540E-20
   48.86489       -7.7683582E-20
   48.99173       -7.7685481E-20
   49.11858       -7.7691233E-20
   49.24542       -7.7699408E-20
   49.37226       -7.7709573E-20
   49.49911       -7.7721044E-20
   49.62595       -7.7732670E-20
   49.75279       -7.7743371E-20
   49.87964       -7.7751966E-20
   50.00648       -7.7757550E-20
   50.13332       -7.7760380E-20
   50.26017       -7.7759430E-20
   50.38701       -7.7755921E-20
   50.51385       -7.7749685E-20
   50.64070       -7.7742014E-20
   50.76754       -7.7733419E-20
   50.89439       -7.7725005E-20
   51.02123       -7.7717302E-20
   51.14808       -7.7710956E-20
   51.27492       -7.7706142E-20
   51.40176       -7.7703712E-20
   51.52861       -7.7703279E-20
   51.65545       -7.7704474E-20
   51.78229       -7.7707479E-20
   51.90914       -7.7711887E-20
   52.03598       -7.7716882E-20
   52.16282       -7.7721005E-20
   52.28967       -7.7724172E-20
   52.41651       -7.7726007E-20
   52.54335       -7.7725529E-20
   52.67020       -7.7723054E-20
   52.79704       -7.7717612E-20
   52.92389       -7.7710271E-20
   53.05073       -7.7700642E-20
   53.17757       -7.7689643E-20
   53.30442       -7.7678612E-20
   53.43126       -7.7667768E-20
   53.55810       -7.7659257E-20
   53.68495       -7.7652995E-20
   53.81179       -7.7650501E-20
   53.93863       -7.7651076E-20
   54.06548       -7.7655781E-20
   54.19232       -7.7663257E-20
   54.31916       -7.7673158E-20
   54.44601       -7.7683607E-20
   54.57285       -7.7693327E-20
   54.69970       -7.7700991E-20
   54.82654       -7.7705159E-20
   54.95338       -7.7705217E-20
   55.08023       -7.7700674E-20
   55.20707       -7.7691860E-20
   55.33392       -7.7678463E-20
   55.46076       -7.7662941E-20
   55.58760       -7.7645738E-20
   55.71444       -7.7628878E-20
   55.84129       -7.7614260E-20
   55.96813       -7.7602951E-20
   56.09497       -7.7596017E-20
   56.22182       -7.7593309E-20
   56.34866       -7.7595616E-20
   56.47551       -7.7602117E-20
   56.60235       -7.7612024E-20
   56.72919       -7.7623139E-20
   56.85604       -7.7634080E-20
   56.98288       -7.7643715E-20
   57.10973       -7.7651173E-20
   57.23657       -7.7655535E-20
   57.36341       -7.7656388E-20
   57.49026       -7.7653958E-20
   57.61710       -7.7648581E-20
   57.74394       -7.7641693E-20
   57.87079       -7.7635146E-20
   57.99763       -7.7629867E-20
   58.12447       -7.7626778E-20
   58.25132       -7.7627482E-20
   58.37816       -7.7632277E-20
   58.50500       -7.7641770E-20
   58.63185       -7.7654908E-20
   58.75869       -7.7670670E-20
   58.88554       -7.7688790E-20
   59.01238       -7.7707092E-20
   59.13923       -7.7724243E-20
   59.26607       -7.7739617E-20
   59.39291       -7.7751643E-20
   59.51975       -7.7760645E-20
   59.64660       -7.7766248E-20
   59.77344       -7.7768549E-20
   59.90028       -7.7768361E-20
   60.02713       -7.7767288E-20
   60.15397       -7.7765505E-20
   60.28082       -7.7764083E-20
   60.40766       -7.7764044E-20
   60.53450       -7.7765563E-20
   60.66135       -7.7768581E-20
   60.78819       -7.7772264E-20
   60.91504       -7.7776665E-20
   61.04188       -7.7781105E-20
   61.16872       -7.7783916E-20
   61.29557       -7.7785861E-20
   61.42241       -7.7785402E-20
   61.54925       -7.7783082E-20
   61.67610       -7.7778442E-20
   61.80294       -7.7771844E-20
   61.92978       -7.7763909E-20
   62.05663       -7.7755423E-20
   62.18347       -7.7747998E-20
   62.31031       -7.7741394E-20
   62.43716       -7.7737174E-20
   62.56400       -7.7735125E-20
   62.69085       -7.7735920E-20
   62.81769       -7.7739306E-20
   62.94453       -7.7744987E-20
   63.07138       -7.7752451E-20
   63.19822       -7.7760736E-20
   63.32506       -7.7768962E-20
   63.45191       -7.7776135E-20
   63.57875       -7.7781312E-20
   63.70559       -7.7784769E-20
   63.83244       -7.7785428E-20
   63.95928       -7.7783845E-20
   64.08613       -7.7779515E-20
   64.21297       -7.7772245E-20
   64.33981       -7.7762784E-20
   64.46666       -7.7751701E-20
   64.59350       -7.7738822E-20
   64.72034       -7.7725374E-20
   64.84719       -7.7712171E-20
   64.97403       -7.7699602E-20
   65.10088       -7.7688396E-20
   65.22771       -7.7678993E-20
   65.35456       -7.7671387E-20
   65.48141       -7.7665274E-20
   65.60825       -7.7660369E-20
   65.73509       -7.7655709E-20
   65.86194       -7.7650979E-20
   65.98878       -7.7645001E-20
   66.11562       -7.7636297E-20
   66.24247       -7.7623508E-20
   66.36931       -7.7606117E-20
   66.49615       -7.7583363E-20
   66.62300       -7.7554884E-20
   66.74984       -7.7520969E-20
   66.87669       -7.7482712E-20
   67.00353       -7.7440998E-20
   67.13037       -7.7398644E-20
   67.25722       -7.7357239E-20
   67.38406       -7.7319732E-20
   67.51090       -7.7287898E-20
   67.63775       -7.7264498E-20
   67.76459       -7.7250546E-20
   67.89143       -7.7248071E-20
   68.01828       -7.7257015E-20
   68.14512       -7.7278024E-20
   68.27197       -7.7309476E-20
   68.39881       -7.7350887E-20
   68.52565       -7.7400485E-20
   68.65250       -7.7456029E-20
   68.77934       -7.7515341E-20
   68.90618       -7.7576475E-20
   69.03303       -7.7636639E-20
   69.15987       -7.7692674E-20
   69.28671       -7.7742654E-20
   69.41356       -7.7782759E-20
   69.54041       -7.7810392E-20
   69.66724       -7.7821966E-20
   69.79409       -7.7814670E-20
   69.92093       -7.7784801E-20
   70.04778       -7.7729949E-20
   70.17462       -7.7648226E-20
   70.30146       -7.7538696E-20
   70.42831       -7.7400389E-20
   70.55515       -7.7235179E-20
   70.68199       -7.7045980E-20
   70.80884       -7.6837602E-20
   70.93568       -7.6616648E-20
   71.06252       -7.6391674E-20
   71.18937       -7.6172672E-20
   71.31622       -7.5971337E-20
   71.44305       -7.5801222E-20
   71.56990       -7.5675639E-20
   71.69675       -7.5608095E-20
   71.82359       -7.5611320E-20
   71.95043       -7.5697224E-20
   72.07728       -7.5875119E-20
   72.20412       -7.6150628E-20
   72.33096       -7.6525852E-20
   72.45780       -7.6996608E-20
   72.58465       -7.7553986E-20
   72.71149       -7.8181984E-20
   72.83833       -7.8859154E-20
   72.96518       -7.9557152E-20
   73.09203       -8.0243499E-20
   73.21886       -8.0880596E-20
   73.34571       -8.1428823E-20
   73.47256       -8.1846316E-20
   73.59940       -8.2093068E-20
   73.72624       -8.2132637E-20
   73.85309       -8.1933487E-20
   73.97993       -8.1472573E-20
   74.10677       -8.0737054E-20
   74.23362       -7.9726349E-20
   74.36046       -7.8452801E-20
   74.48730       -7.6944786E-20
   74.61415       -7.5245034E-20
   74.74099       -7.3411737E-20
   74.86784       -7.1517189E-20
   74.99467       -6.9645557E-20
   75.12152       -6.7890442E-20
   75.24837       -6.6351498E-20
   75.37521       -6.5129436E-20
   75.50205       -6.4322437E-20
   75.62890       -6.4020658E-20
   75.75574       -6.4299909E-20
   75.88258       -6.5217821E-20
   76.00943       -6.6806945E-20
   76.13627       -6.9072761E-20
   76.26311       -7.1987248E-20
   76.38996       -7.5488897E-20
   76.51680       -7.9479694E-20
   76.64365       -8.3827705E-20
   76.77049       -8.8367847E-20
   76.89733       -9.2907763E-20
   77.02418       -9.7231953E-20
   77.15102       -1.0111201E-19
   77.27786       -1.0431578E-19
   77.40471       -1.0661709E-19
   77.53155       -1.0780812E-19
   77.65839       -1.0771228E-19
   77.78524       -1.0619472E-19
   77.91208       -1.0317453E-19
   78.03893       -9.8634205E-20
   78.16577       -9.2626160E-20
   78.29261       -8.5279743E-20
   78.41946       -7.6799914E-20
   78.54630       -6.7469491E-20
   78.67314       -5.7638055E-20
   78.79999       -4.7716040E-20
   78.92683       -3.8159163E-20
   79.05367       -2.9451795E-20
   79.18052       -2.2086152E-20
   79.30737       -1.6538786E-20
   79.43420       -1.3246305E-20
   79.56105       -1.2581042E-20
   79.68790       -1.4826796E-20
   79.81474       -2.0154593E-20
   79.94158       -2.8606652E-20
   80.06842       -4.0079240E-20
   80.19527       -5.4316686E-20
   80.32211       -7.0906400E-20
   80.44895       -8.9285946E-20
   80.57580       -1.0875418E-19
   80.70264       -1.2849288E-19
   80.82948       -1.4759602E-19
   80.95633       -1.6510282E-19
   81.08318       -1.8003998E-19
   81.21001       -1.9146801E-19
   81.33686       -1.9852900E-19
   81.46371       -2.0049496E-19
   81.59055       -1.9681474E-19
   81.71739       -1.8715811E-19
   81.84424       -1.7145201E-19
   81.97108       -1.4990884E-19
   82.09792       -1.2304137E-19
   82.22476       -9.1667981E-20
   82.35161       -5.6902446E-20
   82.47845       -2.0126795E-20
   82.60529        1.7048829E-20
   82.73214        5.2840941E-20
   82.85899        8.5364348E-20
   82.98582        1.1271244E-19
   83.11267        1.3304715E-19
   83.23952        1.4469519E-19
   83.36636        1.4624629E-19
   83.49320        1.3664755E-19
   83.62005        1.1529128E-19
   83.74689        8.2089999E-20
   83.87373        3.7533905E-20
   84.00058       -1.7272987E-20
   84.12742       -8.0602101E-20
   84.25426       -1.5011862E-19
   84.38111       -2.2293342E-19
   84.50795       -2.9568303E-19
   84.63480       -3.6464456E-19
   84.76163       -4.2587908E-19
   84.88848       -4.7540205E-19
   85.01533       -5.0937482E-19
   85.14217       -5.2431009E-19
   85.26901       -5.1728360E-19
   85.39586       -4.8614227E-19
   85.52270       -4.2969939E-19
   85.64954       -3.4790506E-19
   85.77639       -2.4197905E-19
   85.90323       -1.1450117E-19
   86.03008        3.0559971E-20
   86.15692        1.8787658E-19
   86.28376        3.5086489E-19
   86.41061        5.1186231E-19
   86.53745        6.6237578E-19
   86.66429        7.9340548E-19
   86.79114        8.9582761E-19
   86.91798        9.6083284E-19
   87.04482        9.8040269E-19
   87.17167        9.4780371E-19
   87.29851        8.5808010E-19
   87.42535        7.0851700E-19
   87.55220        4.9905207E-19
   87.67904        2.3260371E-19
   87.80589       -8.4706242E-20
   87.93273       -4.4346259E-19
   88.05957       -8.3101873E-19
   88.18642       -1.2317293E-18
   88.31326       -1.6273566E-18
   88.44010       -1.9976594E-18
   88.56695       -2.3211501E-18
   88.69379       -2.5760067E-18
   88.82063       -2.7411113E-18
   88.94748       -2.7971776E-18
   89.07433       -2.7279211E-18
   89.20116       -2.5212198E-18
   89.32801       -2.1702028E-18
   89.45486       -1.6742070E-18
   89.58170       -1.0395369E-18
   89.70854       -2.7996618E-19
   89.83538        5.8307331E-19
   89.96223        1.5206556E-18
   90.08907        2.4969202E-18
   90.21591        3.4700272E-18
   90.34276        4.3935181E-18
   90.46960        5.2180476E-18
   90.59644        5.8934501E-18
   90.72329        6.3710646E-18
   90.85014        6.6062374E-18
   90.97697        6.5608885E-18
   91.10382        6.2060363E-18
   91.23067        5.5241313E-18
   91.35751        4.5110849E-18
   91.48435        3.1778509E-18
   91.61120        1.5514397E-18
   91.73804       -3.2473575E-19
   91.86488       -2.3912660E-18
   91.99173       -4.5739543E-18
   92.11857       -6.7858452E-18
   92.24541       -8.9300483E-18
   92.37225       -1.0903298E-17
   92.49910       -1.2600132E-17
   92.62595       -1.3917559E-17
   92.75278       -1.4760012E-17
   92.87963       -1.5044405E-17
   93.00648       -1.4705026E-17
   93.13332       -1.3698054E-17
   93.26016       -1.2005436E-17
   93.38701       -9.6379032E-18
   93.51385       -6.6369089E-18
   93.64069       -3.0753415E-18
   93.76754        9.4313448E-19
   93.89438        5.2861643E-18
   94.02122        9.7962189E-18
   94.14807        1.4295474E-17
   94.27491        1.8591936E-17
   94.40176        2.2486617E-17
   94.52859        2.5781489E-17
   94.65544        2.8287966E-17
   94.78229        2.9835521E-17
   94.90913        3.0280151E-17
   95.03597        2.9512226E-17
   95.16282        2.7463510E-17
   95.28966        2.4112876E-17
   95.41650        1.9490524E-17
   95.54335        1.3680418E-17
   95.67019        6.8207510E-18
   95.79704       -8.9765154E-19
   95.92388       -9.2350356E-18
   96.05072       -1.7908517E-17
   96.17757       -2.6599860E-17
   96.30441       -3.4965044E-17
   96.43125       -4.2645422E-17
   96.55810       -4.9280149E-17
   96.68494       -5.4519507E-17
   96.81178       -5.8038837E-17
   96.93863       -5.9552551E-17
   97.06547       -5.8827868E-17
   97.19231       -5.5697757E-17
   97.31916       -5.0072650E-17
   97.44600       -4.1950461E-17
   97.57285       -3.1424429E-17
   97.69969       -1.8688338E-17
   97.82653       -4.0387275E-18
   97.95338        1.2126326E-17
   98.08022        2.9312167E-17
   98.20706        4.6936471E-17
   98.33391        6.4342297E-17
   98.46075        8.0815314E-17
   98.58759        9.5605098E-17
   98.71444        1.0795015E-16
   98.84129        1.1710635E-16
   98.96812        1.2237801E-16
   99.09497        1.2315082E-16
   99.22182        1.1892550E-16
   99.34866        1.0935103E-16
   99.47550        9.4255821E-17
   99.60234        7.3675554E-17
   99.72919        4.7875738E-17
   99.85603        1.7367530E-17
   99.98287       -1.7084850E-17
   100.1097       -5.4466604E-17
   100.2366       -9.3525818E-17
   100.3634       -1.3279888E-16
   100.4902       -1.7064810E-16
   100.6171       -2.0531167E-16
   100.7439       -2.3496495E-16
   100.8708       -2.5779202E-16
   100.9976       -2.7206539E-16
   101.1245       -2.7623110E-16
   101.2513       -2.6899638E-16
   101.3782       -2.4941563E-16
   101.5050       -2.1697116E-16
   101.6318       -1.7164397E-16
   101.7587       -1.1397035E-16
   101.8855       -4.5080132E-17
   102.0124        3.3287108E-17
   102.1392        1.1879132E-16
   102.2661        2.0852879E-16
   102.3929        2.9909792E-16
   102.5197        3.8669415E-16
   102.6466        4.6723253E-16
   102.7734        5.3649585E-16
   102.9003        5.9030361E-16
   103.0271        6.2469696E-16
   103.1540        6.3613307E-16
   103.2808        6.2168068E-16
   103.4077        5.7920933E-16
   103.5345        5.0756231E-16
   103.6613        4.0670504E-16
   103.7882        2.7783988E-16
   103.9150        1.2347917E-16
   104.0419       -5.2530614E-17
   104.1687       -2.4503898E-16
   104.2956       -4.4767989E-16
   104.4224       -6.5301963E-16
   104.5492       -8.5276429E-16
   104.6761       -1.0380226E-15
   104.8029       -1.1996189E-15
   104.9298       -1.3284469E-15
   105.0566       -1.4158552E-15
   105.1835       -1.4540483E-15
   105.3103       -1.4364918E-15
   105.4371       -1.3583017E-15
   105.5640       -1.2166037E-15
   105.6908       -1.0108426E-15
   105.8177       -7.4302620E-16
   105.9445       -4.1788701E-16
   106.0714       -4.2948098E-17
   106.1982        3.7151892E-16
   106.3251        8.1265124E-16
   106.4519        1.2652721E-15
   106.5787        1.7122875E-15
   106.7056        2.1351979E-15
   106.8324        2.5147136E-15
   106.9593        2.8314598E-15
   107.0861        3.0667499E-15
   107.2130        3.2034028E-15
   107.3398        3.2265744E-15
   107.4667        3.1245713E-15
   107.5935        2.8896125E-15
   107.7203        2.5185025E-15
   107.8472        2.0131805E-15
   107.9740        1.3811126E-15