  -7.200000       -1.7506905E-18
  -7.073156       -1.7506845E-18
  -6.946313       -1.7506721E-18
  -6.819469       -1.7506535E-18
  -6.692626       -1.7506297E-18
  -6.565782       -1.7506014E-18
  -6.438938       -1.7505681E-18
  -6.312095       -1.7505319E-18
  -6.185251       -1.7504933E-18
  -6.058407       -1.7504529E-18
  -5.931563       -1.7504122E-18
  -5.804720       -1.7503715E-18
  -5.677876       -1.7503322E-18
  -5.551033       -1.7502947E-18
  -5.424189       -1.7502596E-18
  -5.297346       -1.7502271E-18
  -5.170502       -1.7501984E-18
  -5.043658       -1.7501733E-18
  -4.916814       -1.7501516E-18
  -4.789971       -1.7501336E-18
  -4.663127       -1.7501192E-18
  -4.536283       -1.7501076E-18
  -4.409440       -1.7500983E-18
  -4.282596       -1.7500917E-18
  -4.155753       -1.7500867E-18
  -4.028909       -1.7500832E-18
  -3.902065       -1.7500797E-18
  -3.775222       -1.7500762E-18
  -3.648378       -1.7500724E-18
  -3.521534       -1.7500671E-18
  -3.394691       -1.7500602E-18
  -3.267847       -1.7500511E-18
  -3.141004       -1.7500393E-18
  -3.014160       -1.7500257E-18
  -2.887316       -1.7500085E-18
  -2.760473       -1.7499891E-18
  -2.633629       -1.7499670E-18
  -2.506785       -1.7499424E-18
  -2.379942       -1.7499161E-18
  -2.253098       -1.7498882E-18
  -2.126254       -1.7498596E-18
  -1.999411       -1.7498305E-18
  -1.872567       -1.7498024E-18
  -1.745723       -1.7497751E-18
  -1.618880       -1.7497494E-18
  -1.492036       -1.7497267E-18
  -1.365193       -1.7497070E-18
  -1.238349       -1.7496905E-18
  -1.111505       -1.7496779E-18
 -0.9846617       -1.7496696E-18
 -0.8578180       -1.7496653E-18
 -0.7309744       -1.7496657E-18
 -0.6041307       -1.7496704E-18
 -0.4772871       -1.7496789E-18
 -0.3504435       -1.7496907E-18
 -0.2235998       -1.7497058E-18
 -9.6756198E-02   -1.7497234E-18
  3.0087441E-02   -1.7497430E-18
  0.1569311       -1.7497635E-18
  0.2837747       -1.7497852E-18
  0.4106184       -1.7498061E-18
  0.5374620       -1.7498257E-18
  0.6643056       -1.7498439E-18
  0.7911493       -1.7498592E-18
  0.9179929       -1.7498706E-18
   1.044837       -1.7498791E-18
   1.171680       -1.7498830E-18
   1.298524       -1.7498820E-18
   1.425367       -1.7498760E-18
   1.552211       -1.7498652E-18
   1.679055       -1.7498501E-18
   1.805898       -1.7498309E-18
   1.932742       -1.7498071E-18
   2.059586       -1.7497794E-18
   2.186429       -1.7497494E-18
   2.313273       -1.7497167E-18
   2.440117       -1.7496826E-18
   2.566960       -1.7496475E-18
   2.693804       -1.7496131E-18
   2.820647       -1.7495796E-18
   2.947491       -1.7495474E-18
   3.074335       -1.7495178E-18
   3.201178       -1.7494913E-18
   3.328022       -1.7494684E-18
   3.454866       -1.7494487E-18
   3.581709       -1.7494332E-18
   3.708553       -1.7494212E-18
   3.835397       -1.7494138E-18
   3.962240       -1.7494103E-18
   4.089084       -1.7494109E-18
   4.215928       -1.7494146E-18
   4.342771       -1.7494216E-18
   4.469615       -1.7494316E-18
   4.596458       -1.7494442E-18
   4.723302       -1.7494578E-18
   4.850146       -1.7494721E-18
   4.976989       -1.7494851E-18
   5.103833       -1.7494953E-18
   5.230677       -1.7495002E-18
   5.357520       -1.7494980E-18
   5.484364       -1.7494866E-18
   5.611207       -1.7494647E-18
   5.738051       -1.7494312E-18
   5.864895       -1.7493875E-18
   5.991738       -1.7493379E-18
   6.118582       -1.7492858E-18
   6.245426       -1.7492378E-18
   6.372270       -1.7492018E-18
   6.499113       -1.7491857E-18
   6.625957       -1.7491944E-18
   6.752800       -1.7492299E-18
   6.879644       -1.7492889E-18
   7.006487       -1.7493613E-18
   7.133331       -1.7494291E-18
   7.260175       -1.7494702E-18
   7.387019       -1.7494587E-18
   7.513862       -1.7493683E-18
   7.640706       -1.7491822E-18
   7.767550       -1.7488964E-18
   7.894393       -1.7485279E-18
   8.021236       -1.7481168E-18
   8.148081       -1.7477276E-18
   8.274924       -1.7474459E-18
   8.401768       -1.7473671E-18
   8.528611       -1.7475791E-18
   8.655455       -1.7481453E-18
   8.782298       -1.7490806E-18
   8.909142       -1.7503332E-18
   9.035986       -1.7517731E-18
   9.162829       -1.7531895E-18
   9.289673       -1.7543080E-18
   9.416516       -1.7548223E-18
   9.543361       -1.7544462E-18
   9.670204       -1.7529692E-18
   9.797048       -1.7503262E-18
   9.923891       -1.7466473E-18
   10.05073       -1.7422947E-18
   10.17758       -1.7378583E-18
   10.30442       -1.7341108E-18
   10.43127       -1.7319144E-18
   10.55811       -1.7320840E-18
   10.68495       -1.7352229E-18
   10.81180       -1.7415578E-18
   10.93864       -1.7507981E-18
   11.06548       -1.7620610E-18
   11.19233       -1.7738868E-18
   11.31917       -1.7843682E-18
   11.44602       -1.7913959E-18
   11.57286       -1.7929973E-18
   11.69970       -1.7877358E-18
   11.82655       -1.7750949E-18
   11.95339       -1.7557792E-18
   12.08023       -1.7318514E-18
   12.20708       -1.7066387E-18
   12.33392       -1.6843766E-18
   12.46076       -1.6695989E-18
   12.58761       -1.6663374E-18
   12.71445       -1.6772389E-18
   12.84130       -1.7027652E-18
   12.96814       -1.7406378E-18
   13.09498       -1.7857005E-18
   13.22183       -1.8303135E-18
   13.34867       -1.8653159E-18
   13.47551       -1.8814949E-18
   13.60236       -1.8713801E-18
   13.72920       -1.8310817E-18
   13.85604       -1.7618244E-18
   13.98289       -1.6708250E-18
   14.10973       -1.5712035E-18
   14.23658       -1.4807657E-18
   14.36342       -1.4196637E-18
   14.49026       -1.4071807E-18
   14.61711       -1.4580825E-18
   14.74395       -1.5791464E-18
   14.87079       -1.7665435E-18
   14.99764       -2.0046941E-18
   15.12448       -2.2670128E-18
   15.25132       -2.5186473E-18
   15.37817       -2.7209502E-18
   15.50501       -2.8370155E-18
   15.63186       -2.8373255E-18
   15.75870       -2.7044302E-18
   15.88554       -2.4356664E-18
   16.01239       -2.0432660E-18
   16.13923       -1.5517633E-18
   16.26607       -9.9326535E-19
   16.39292       -4.0180590E-19
   16.51976        1.9154510E-19
   16.64660        7.6104065E-19
   16.77345        1.2846670E-18
   16.90029        1.7380425E-18
   17.02714        2.0845243E-18
   17.15398        2.2636757E-18
   17.28082        2.1816727E-18
   17.40767        1.7080716E-18
   17.53451        6.8342701E-19
   17.66135       -1.0588282E-18
   17.78820       -3.6551068E-18
   17.91504       -7.1612467E-18
   18.04188       -1.1495161E-17
   18.16873       -1.6382726E-17
   18.29557       -2.1320198E-17
   18.42241       -2.5567504E-17
   18.54926       -2.8185488E-17
   18.67610       -2.8125597E-17
   18.80295       -2.4373004E-17
   18.92979       -1.6134184E-17
   19.05663       -3.0487570E-18
   19.18348        1.4604846E-17
   19.31032        3.5748129E-17
   19.43716        5.8426632E-17
   19.56401        7.9856314E-17
   19.69085        9.6617991E-17
   19.81770        1.0500669E-16
   19.94454        1.0151868E-16
   20.07138        8.3432004E-17
   20.19823        4.9410575E-17
   20.32507        4.2570156E-20
   20.45191       -6.1785674E-17
   20.57876       -1.3077365E-16
   20.70560       -1.9942139E-16
   20.83245       -2.5861054E-16
   20.95929       -2.9853922E-16
   21.08613       -3.0994108E-16
   21.21297       -2.8546392E-16
   21.33982       -2.2103803E-16
   21.46666       -1.1703677E-16
   21.59351        2.0970971E-17
   21.72035        1.8204817E-16
   21.84719        3.5041285E-16
   21.97404        5.0669114E-16
   22.10088        6.2983665E-16
   22.22772        6.9955196E-16
   22.35457        6.9895671E-16
   22.48141        6.1718431E-16
   22.60826        4.5155935E-16
   22.73510        2.0902706E-16
   22.86194       -9.3431850E-17
   22.98879       -4.2956167E-16
   23.11563       -7.6579439E-16
   23.24247       -1.0642913E-15
   23.36932       -1.2868004E-15
   23.49616       -1.3989486E-15
   23.62300       -1.3745067E-15
   23.74985       -1.1991462E-15
   23.87669       -8.7323316E-16
   24.00353       -4.1329001E-16
   24.13038        1.4812194E-16
   24.25722        7.6419154E-16
   24.38407        1.3772505E-15
   24.51091        1.9235455E-15
   24.63775        2.3390349E-15
   24.76460        2.5657424E-15
   24.89144        2.5581384E-15
   25.01828        2.2889801E-15
   25.14513        1.7540433E-15
   25.27197        9.7520841E-16
   25.39882        1.4307882E-18
   25.52566       -1.0927625E-15
   25.65250       -2.2114660E-15
   25.77935       -3.2442946E-15
   25.90619       -4.0757442E-15
   26.03303       -4.5964806E-15
   26.15988       -4.7157115E-15
   26.28672       -4.3734585E-15
   26.41356       -3.5513389E-15
   26.54041       -2.2803086E-15
   26.66725       -6.4386924E-16
   26.79410        1.2244893E-15
   26.92094        3.1503146E-15
   27.04778        4.9336726E-15
   27.17463        6.3701388E-15
   27.30147        7.2754125E-15
   27.42831        7.5107436E-15
   27.55516        7.0057566E-15
   27.68200        5.7749724E-15
   27.80884        3.9246734E-15
   27.93569        1.6475546E-15
   28.06253       -7.9585718E-16
   28.18937       -3.1082444E-15
   28.31622       -4.9960951E-15
   28.44306       -6.2149636E-15
   28.56991       -6.6129954E-15
   28.69675       -6.1654838E-15
   28.82359       -4.9935188E-15
   28.95044       -3.3612448E-15
   29.07728       -1.6487055E-15
   29.20412       -3.0079085E-16
   29.33097        2.4333028E-16
   29.45781       -3.6794876E-16
   29.58466       -2.3169703E-15
   29.71150       -5.5484199E-15
   29.83834       -9.7275102E-15
   29.96519       -1.4235964E-14
   30.09203       -1.8212924E-14
   30.21887       -2.0642259E-14
   30.34572       -2.0480875E-14
   30.47256       -1.6815830E-14
   30.59941       -9.0320233E-15
   30.72625        3.0320118E-15
   30.85309        1.8963848E-14
   30.97993        3.7714657E-14
   31.10678        5.7611312E-14
   31.23362        7.6452198E-14
   31.36047        9.1685882E-14
   31.48731        1.0066089E-13
   31.61415        1.0092471E-13
   31.74100        9.0541832E-14
   31.86784        6.8395525E-14
   31.99468        3.4437107E-14
   32.12153       -1.0150468E-14
   32.24837       -6.2900518E-14
   32.37521       -1.2013731E-13
   32.50206       -1.7718022E-13
   32.62890       -2.2866699E-13
   32.75574       -2.6897351E-13
   32.88259       -2.9269745E-13
   33.00943       -2.9516705E-13
   33.13628       -2.7293199E-13
   33.26312       -2.2419574E-13
   33.38997       -1.4915079E-13
   33.51681       -5.0185957E-14
   33.64365        6.8057715E-14
   33.77050        1.9879759E-13
   33.89734        3.3339135E-13
   34.02418        4.6178675E-13
   34.15103        5.7312613E-13
   34.27787        6.5648154E-13
   34.40471        7.0168676E-13
   34.53156        7.0022102E-13
   34.65840        6.4608686E-13
   34.78524        5.3661361E-13
   34.91209        3.7311116E-13
   35.03893        1.6129409E-13
   35.16578       -8.8599585E-14
   35.29262       -3.6205823E-13
   35.41946       -6.4095452E-13
   35.54631       -9.0461720E-13
   35.67315       -1.1312832E-12
   35.80000       -1.2998451E-12
   35.92684       -1.3917662E-12
   36.05368       -1.3929938E-12
   36.18052       -1.2956758E-12
   36.30737       -1.0994731E-12
   36.43421       -8.1228432E-13
   36.56105       -4.5023300E-13
   36.68790       -3.6834996E-14
   36.81474        3.9864837E-13
   36.94159        8.2357829E-13
   37.06843        1.2048368E-12
   37.19527        1.5119840E-12
   37.32212        1.7203485E-12
   37.44896        1.8137036E-12
   37.57581        1.7862009E-12
   37.70265        1.6432943E-12
   37.82949        1.4014881E-12
   37.95634        1.0868654E-12
   38.08318        7.3249843E-13
   38.21002        3.7497468E-13
   38.33687        5.0390078E-14
   38.46371       -2.0976001E-13
   38.59055       -3.8233064E-13
   38.71740       -4.5548314E-13
   38.84424       -4.3048280E-13
   38.97108       -3.2209793E-13
   39.09793       -1.5751216E-13
   39.22477        2.6180909E-14
   39.35162        1.8566671E-13
   39.47846        2.7593113E-13
   39.60530        2.5516311E-13
   39.73215        8.9565819E-14
   39.85899       -2.4239858E-13
   39.98583       -7.4672283E-13
   40.11268       -1.4118321E-12
   40.23952       -2.2079977E-12
   40.36636       -3.0882300E-12
   40.49321       -3.9905830E-12
   40.62005       -4.8416900E-12
   40.74689       -5.5612871E-12
   40.87374       -6.0674430E-12
   41.00058       -6.2821835E-12
   41.12743       -6.1372222E-12
   41.25427       -5.5794904E-12
   41.38111       -4.5761975E-12
   41.50796       -3.1191245E-12
   41.63480       -1.2278856E-12
   41.76165        1.0481451E-12
   41.88849        3.6294993E-12
   42.01533        6.4081262E-12
   42.14218        9.2509290E-12
   42.26902        1.2005379E-11
   42.39586        1.4507152E-11
   42.52271        1.6589473E-11
   42.64955        1.8093731E-11
   42.77639        1.8880621E-11
   42.90324        1.8841000E-11
   43.03008        1.7905462E-11
   43.15693        1.6051693E-11
   43.28377        1.3308715E-11
   43.41061        9.7574032E-12
   43.53746        5.5269274E-12
   43.66430        7.8721654E-13
   43.79114       -4.2620530E-12
   43.91799       -9.4050514E-12
   44.04483       -1.4424721E-11
   44.17167       -1.9117583E-11
   44.29852       -2.3306962E-11
   44.42536       -2.6853252E-11
   44.55220       -2.9660174E-11
   44.67905       -3.1676349E-11
   44.80589       -3.2892186E-11
   44.93274       -3.3332382E-11
   45.05958       -3.3045087E-11
   45.18642       -3.2089012E-11
   45.31327       -3.0520055E-11
   45.44011       -2.8379070E-11
   45.56696       -2.5682298E-11
   45.69380       -2.2415618E-11
   45.82064       -1.8533411E-11
   45.94748       -1.3962341E-11
   46.07433       -8.6098221E-12
   46.20117       -2.3765831E-12
   46.32801        4.8276955E-12
   46.45486        1.3066827E-11
   46.58170        2.2359980E-11
   46.70855        3.2664191E-11
   46.83539        4.3858795E-11
   46.96223        5.5732807E-11
   47.08908        6.7976368E-11
   47.21592        8.0176941E-11
   47.34277        9.1821342E-11
   47.46961        1.0230411E-10
   47.59645        1.1094317E-10
   47.72330        1.1700313E-10
   47.85014        1.1972655E-10
   47.97698        1.1837298E-10
   48.10383        1.1226488E-10
   48.23067        1.0083908E-10
   48.35751        8.3701081E-11
   48.48436        6.0679003E-11
   48.61120        3.1873223E-11
   48.73804       -2.3030692E-12
   48.86489       -4.1096990E-11
   48.99173       -8.3407219E-11
   49.11858       -1.2779701E-10
   49.24542       -1.7253138E-10
   49.37226       -2.1563877E-10
   49.49911       -2.5499611E-10
   49.62595       -2.8843322E-10
   49.75279       -3.1385161E-10
   49.87964       -3.2934944E-10
   50.00648       -3.3334521E-10
   50.13332       -3.2469041E-10
   50.26017       -3.0276312E-10
   50.38701       -2.6753458E-10
   50.51385       -2.1960325E-10
   50.64070       -1.6019260E-10
   50.76754       -9.1111951E-11
   50.89439       -1.4682368E-11
   51.02123        6.6368418E-11
   51.14808        1.4903513E-10
   51.27492        2.3018004E-10
   51.40176        3.0668498E-10
   51.52861        3.7560069E-10
   51.65545        4.3428489E-10
   51.78229        4.8052123E-10
   51.90914        5.1261245E-10
   52.03598        5.2944371E-10
   52.16282        5.3051358E-10
   52.28967        5.1593191E-10
   52.41651        4.8638643E-10
   52.54335        4.4308157E-10
   52.67020        3.8765388E-10
   52.79704        3.2207001E-10
   52.92389        2.4851429E-10
   53.05073        1.6927294E-10
   53.17757        8.6622154E-11
   53.30442        2.7270764E-12
   53.43126       -8.0442264E-11
   53.55810       -1.6117316E-10
   53.68495       -2.3804692E-10
   53.81179       -3.0994893E-10
   53.93863       -3.7605205E-10
   54.06548       -4.3577636E-10
   54.19232       -4.8872961E-10
   54.31916       -5.3463478E-10
   54.44601       -5.7325200E-10
   54.57285       -6.0430316E-10
   54.69970       -6.2740679E-10
   54.82654       -6.4203093E-10
   54.95338       -6.4746869E-10
   55.08023       -6.4284084E-10
   55.20707       -6.2712602E-10
   55.33392       -5.9921734E-10
   55.46076       -5.5800164E-10
   55.58760       -5.0245524E-10
   55.71444       -4.3174916E-10
   55.84129       -3.4535580E-10
   55.96813       -2.4314900E-10
   56.09497       -1.2548955E-10
   56.22182        6.7090873E-12
   56.34866        1.5194039E-10
   56.47551        3.0809100E-10
   56.60235        4.7245596E-10
   56.72919        6.4178063E-10
   56.85604        8.1232665E-10
   56.98288        9.7996011E-10
   57.10973        1.1402554E-09
   57.23657        1.2886112E-09
   57.36341        1.4203747E-09
   57.49026        1.5309679E-09
   57.61710        1.6160142E-09
   57.74394        1.6714592E-09
   57.87079        1.6936860E-09
   57.99763        1.6796213E-09
   58.12447        1.6268314E-09
   58.25132        1.5336085E-09
   58.37816        1.3990475E-09
   58.50500        1.2231146E-09
   58.63185        1.0067097E-09
   58.75869        7.5172468E-10
   58.88554        4.6110021E-10
   59.01238        1.3887982E-10
   59.13923       -2.0973633E-10
   59.26607       -5.7834282E-10
   59.39291       -9.5929054E-10
   59.51975       -1.3436674E-09
   59.64660       -1.7213099E-09
   59.77344       -2.0808608E-09
   59.90028       -2.4098914E-09
   60.02713       -2.6951066E-09
   60.15397       -2.9226495E-09
   60.28082       -3.0785305E-09
   60.40766       -3.1491800E-09
   60.53450       -3.1221463E-09
   60.66135       -2.9869303E-09
   60.78819       -2.7359504E-09
   60.91504       -2.3656157E-09
   61.04188       -1.8774813E-09
   61.16872       -1.2794420E-09
   61.29557       -5.8691541E-10
   61.42241        1.7604376E-10
   61.54925        9.7576824E-10
   61.67610        1.7682072E-09
   61.80294        2.4984268E-09
   61.92978        3.1004599E-09
   62.05663        3.4975536E-09
   62.18347        3.6028873E-09
   62.31031        3.3207757E-09
   62.43716        2.5483811E-09
   62.56400        1.1779377E-09
   62.69085       -9.0053975E-10
   62.81769       -3.7961199E-09
   62.94453       -7.6135054E-09
   63.07138       -1.2449343E-08
   63.19822       -1.8388480E-08
   63.32506       -2.5500302E-08
   63.45191       -3.3835416E-08
   63.57875       -4.3422855E-08
   63.70559       -5.4267986E-08
   63.83244       -6.6351483E-08
   63.95928       -7.9629544E-08
   64.08613       -9.4035492E-08
   64.21297       -1.0948315E-07
   64.33981       -1.2587194E-07
   64.46666       -1.4309404E-07
   64.59350       -1.6104349E-07
   64.72034       -1.7962745E-07
   64.84719       -1.9877928E-07
   64.97403       -2.1847353E-07
   65.10088       -2.3874239E-07
   65.22771       -2.5969331E-07
   65.35456       -2.8152749E-07
   65.48141       -3.0455811E-07
   65.60825       -3.2922841E-07
   65.73509       -3.5612803E-07
   65.86194       -3.8600717E-07
   65.98878       -4.1978757E-07
   66.11562       -4.5856919E-07
   66.24247       -5.0363155E-07
   66.36931       -5.5642880E-07
   66.49615       -6.1857764E-07
   66.62300       -6.9183778E-07
   66.74984       -7.7808215E-07
   66.87669       -8.7925991E-07
   67.00353       -9.9734871E-07
   67.13037       -1.1342976E-06
   67.25722       -1.2919619E-06
   67.38406       -1.4720281E-06
   67.51090       -1.6759321E-06
   67.63775       -1.9047719E-06
   67.76459       -2.1592134E-06
   67.89143       -2.4393948E-06
   68.01828       -2.7448311E-06
   68.14512       -3.0743179E-06
   68.27197       -3.4258392E-06
   68.39881       -3.7964858E-06
   68.52565       -4.1823778E-06
   68.65250       -4.5786037E-06
   68.77934       -4.9791711E-06
   68.90618       -5.3769741E-06
   69.03303       -5.7637840E-06
   69.15987       -6.1302594E-06
   69.28671       -6.4659757E-06
   69.41356       -6.7594847E-06
   69.54041       -6.9983957E-06
   69.66724       -7.1694790E-06
   69.79409       -7.2588014E-06
   69.92093       -7.2518737E-06
   70.04778       -7.1338300E-06
   70.17462       -6.8896188E-06
   70.30146       -6.5042095E-06
   70.42831       -5.9628223E-06
   70.55515       -5.2511477E-06
   70.68199       -4.3555824E-06
   70.80884       -3.2634644E-06
   70.93568       -1.9632980E-06
   71.06252       -4.4496579E-07
   71.18937        1.3000598E-06
   71.31622        3.2785447E-06
   71.44305        5.4953407E-06
   71.56990        7.9532483E-06
   71.69675        1.0652928E-05
   71.82359        1.3592811E-05
   71.95043        1.6769103E-05
   72.07728        2.0175779E-05
   72.20412        2.3804610E-05
   72.33096        2.7645257E-05
   72.45780        3.1685380E-05
   72.58465        3.5910758E-05
   72.71149        4.0305513E-05
   72.83833        4.4852259E-05
   72.96518        4.9532293E-05
   73.09203        5.4325905E-05
   73.21886        5.9212562E-05
   73.34571        6.4171167E-05
   73.47256        6.9180263E-05
   73.59940        7.4218406E-05
   73.72624        7.9264180E-05
   73.85309        8.4296626E-05
   73.97993        8.9295325E-05
   74.10677        9.4240619E-05
   74.23362        9.9113728E-05
   74.36046        1.0389690E-04
   74.48730        1.0857352E-04
   74.61415        1.1312818E-04
   74.74099        1.1754671E-04
   74.86784        1.2181623E-04
   74.99467        1.2592506E-04
   75.12152        1.2986283E-04
   75.24837        1.3362040E-04
   75.37521        1.3718968E-04
   75.50205        1.4056369E-04
   75.62890        1.4373641E-04
   75.75574        1.4670282E-04
   75.88258        1.4945863E-04
   76.00943        1.5200036E-04
   76.13627        1.5432524E-04
   76.26311        1.5643112E-04
   76.38996        1.5831644E-04
   76.51680        1.5998023E-04
   76.64365        1.6142211E-04
   76.77049        1.6264225E-04
   76.89733        1.6364141E-04
   77.02418        1.6442103E-04
   77.15102        1.6498321E-04
   77.27786        1.6533084E-04
   77.40471        1.6546759E-04
   77.53155        1.6539803E-04
   77.65839        1.6512767E-04
   77.78524        1.6466310E-04
   77.91208        1.6401193E-04
   78.03893        1.6318292E-04
   78.16577        1.6218596E-04
   78.29261        1.6103206E-04
   78.41946        1.5973343E-04
   78.54630        1.5830332E-04
   78.67314        1.5675602E-04
   78.79999        1.5510678E-04
   78.92683        1.5337164E-04
   79.05367        1.5156732E-04
   79.18052        1.4971102E-04
   79.30737        1.4782029E-04
   79.43420        1.4591271E-04
   79.56105        1.4400578E-04
   79.68790        1.4211664E-04
   79.81474        1.4026173E-04
   79.94158        1.3845673E-04
   80.06842        1.3671609E-04
   80.19527        1.3505296E-04
   80.32211        1.3347893E-04
   80.44895        1.3200367E-04
   80.57580        1.3063496E-04
   80.70264        1.2937843E-04
   80.82948        1.2823739E-04
   80.95633        1.2721278E-04
   81.08318        1.2630316E-04
   81.21001        1.2550458E-04
   81.33686        1.2481071E-04
   81.46371        1.2421291E-04
   81.59055        1.2370029E-04
   81.71739        1.2325980E-04
   81.84424        1.2287655E-04
   81.97108        1.2253394E-04
   82.09792        1.2221388E-04
   82.22476        1.2189712E-04
   82.35161        1.2156348E-04
   82.47845        1.2119215E-04
   82.60529        1.2076196E-04
   82.73214        1.2025172E-04
   82.85899        1.1964045E-04
   82.98582        1.1890762E-04
   83.11267        1.1803345E-04
   83.23952        1.1699914E-04
   83.36636        1.1578698E-04
   83.49320        1.1438059E-04
   83.62005        1.1276499E-04
   83.74689        1.1092673E-04
   83.87373        1.0885396E-04
   84.00058        1.0653643E-04
   84.12742        1.0396552E-04
   84.25426        1.0113418E-04
   84.38111        9.8036937E-05
   84.50795        9.4669769E-05
   84.63480        9.1030030E-05
   84.76163        8.7116365E-05
   84.88848        8.2928622E-05
   85.01533        7.8467725E-05
   85.14217        7.3735580E-05
   85.26901        6.8734975E-05
   85.39586        6.3469539E-05
   85.52270        5.7943642E-05
   85.64954        5.2162359E-05
   85.77639        4.6131470E-05
   85.90323        3.9857456E-05
   86.03008        3.3347525E-05
   86.15692        2.6609679E-05
   86.28376        1.9652789E-05
   86.41061        1.2486692E-05
   86.53745        5.1223205E-06
   86.66429       -2.4281917E-06
   86.79114       -1.0151354E-05
   86.91798       -1.8032191E-05
   87.04482       -2.6054111E-05
   87.17167       -3.4198798E-05
   87.29851       -4.2446103E-05
   87.42535       -5.0773997E-05
   87.55220       -5.9158545E-05
   87.67904       -6.7573877E-05
   87.80589       -7.5992313E-05
   87.93273       -8.4384410E-05
   88.05957       -9.2719180E-05
   88.18642       -1.0096427E-04
   88.31326       -1.0908625E-04
   88.44010       -1.1705099E-04
   88.56695       -1.2482393E-04
   88.69379       -1.3237057E-04
   88.82063       -1.3965697E-04
   88.94748       -1.4665011E-04
   89.07433       -1.5331850E-04
   89.20116       -1.5963257E-04
   89.32801       -1.6556526E-04
   89.45486       -1.7109241E-04
   89.58170       -1.7619324E-04
   89.70854       -1.8085069E-04
   89.83538       -1.8505182E-04
   89.96223       -1.8878796E-04
   90.08907       -1.9205503E-04
   90.21591       -1.9485343E-04
   90.34276       -1.9718822E-04
   90.46960       -1.9906893E-04
   90.59644       -2.0050938E-04
   90.72329       -2.0152744E-04
   90.85014       -2.0214451E-04
   90.97697       -2.0238527E-04
   91.10382       -2.0227696E-04
   91.23067       -2.0184895E-04
   91.35751       -2.0113196E-04
   91.48435       -2.0015750E-04
   91.61120       -1.9895712E-04
   91.73804       -1.9756172E-04
   91.86488       -1.9600097E-04
   91.99173       -1.9430254E-04
   92.11857       -1.9249161E-04
   92.24541       -1.9059033E-04
   92.37225       -1.8861741E-04
   92.49910       -1.8658767E-04
   92.62595       -1.8451185E-04
   92.75278       -1.8239656E-04
   92.87963       -1.8024402E-04
   93.00648       -1.7805233E-04
   93.13332       -1.7581561E-04
   93.26016       -1.7352424E-04
   93.38701       -1.7116530E-04
   93.51385       -1.6872310E-04
   93.64069       -1.6617966E-04
   93.76754       -1.6351537E-04
   93.89438       -1.6070981E-04
   94.02122       -1.5774221E-04
   94.14807       -1.5459242E-04
   94.27491       -1.5124155E-04
   94.40176       -1.4767268E-04
   94.52859       -1.4387154E-04
   94.65544       -1.3982711E-04
   94.78229       -1.3553226E-04
   94.90913       -1.3098412E-04
   95.03597       -1.2618444E-04
   95.16282       -1.2113999E-04
   95.28966       -1.1586254E-04
   95.41650       -1.1036902E-04
   95.54335       -1.0468144E-04
   95.67019       -9.8826597E-05
   95.79704       -9.2835900E-05
   95.92388       -8.6744883E-05
   96.05072       -8.0592727E-05
   96.17757       -7.4421660E-05
   96.30441       -6.8276284E-05
   96.43125       -6.2202897E-05
   96.55810       -5.6248682E-05
   96.68494       -5.0460978E-05
   96.81178       -4.4886427E-05
   96.93863       -3.9570219E-05
   97.06547       -3.4555345E-05
   97.19231       -2.9881836E-05
   97.31916       -2.5586141E-05
   97.44600       -2.1700520E-05
   97.57285       -1.8252538E-05
   97.69969       -1.5264637E-05
   97.82653       -1.2753817E-05
   97.95338       -1.0731418E-05
   98.08022       -9.2029986E-06
   98.20706       -8.1683165E-06
   98.33391       -7.6214087E-06
   98.46075       -7.5507733E-06
   98.58759       -7.9396277E-06
   98.71444       -8.7662493E-06
   98.84129       -1.0004384E-05
   98.96812       -1.1623710E-05
   99.09497       -1.3590353E-05
   99.22182       -1.5867428E-05
   99.34866       -1.8415612E-05
   99.47550       -2.1193717E-05
   99.60234       -2.4159270E-05
   99.72919       -2.7269080E-05
   99.85603       -3.0479783E-05
   99.98287       -3.3748376E-05
   100.1097       -3.7032678E-05
   100.2366       -4.0291787E-05
   100.3634       -4.3486485E-05
   100.4902       -4.6579586E-05
   100.6171       -4.9536229E-05
   100.7439       -5.2324147E-05
   100.8708       -5.4913864E-05
   100.9976       -5.7278859E-05
   101.1245       -5.9395687E-05
   101.2513       -6.1244056E-05
   101.3782       -6.2806874E-05
   101.5050       -6.4070235E-05
   101.6318       -6.5023458E-05
   101.7587       -6.5658991E-05
   101.8855       -6.5972403E-05
   102.0124       -6.5962275E-05
   102.1392       -6.5630156E-05
   102.2661       -6.4980450E-05
   102.3929       -6.4020314E-05
   102.5197       -6.2759595E-05
   102.6466       -6.1210696E-05
   102.7734       -5.9388512E-05
   102.9003       -5.7310310E-05
   103.0271       -5.4995642E-05
   103.1540       -5.2466261E-05
   103.2808       -4.9746042E-05
   103.4077       -4.6860845E-05
   103.5345       -4.3838463E-05
   103.6613       -4.0708477E-05
   103.7882       -3.7502145E-05
   103.9150       -3.4252269E-05
   104.0419       -3.0993018E-05
   104.1687       -2.7759750E-05
   104.2956       -2.4588782E-05
   104.4224       -2.1517149E-05
   104.5492       -1.8582306E-05
   104.6761       -1.5821808E-05
   104.8029       -1.3272935E-05
   104.9298       -1.0972304E-05
   105.0566       -8.9554333E-06
   105.1835       -7.2562643E-06
   105.3103       -5.9066847E-06
   105.4371       -4.9360187E-06
   105.5640       -4.3705077E-06
   105.6908       -4.2327897E-06
   105.8177       -4.5413985E-06
   105.9445       -5.3102713E-06
   106.0714       -6.5483041E-06
   106.1982       -8.2589395E-06
   106.3251       -1.0439820E-05
   106.4519       -1.3082516E-05
   106.5787       -1.6172316E-05
   106.7056       -1.9688128E-05
   106.8324       -2.3602470E-05
   106.9593       -2.7881553E-05
   107.0861       -3.2485503E-05
   107.2130       -3.7368645E-05
   107.3398       -4.2479951E-05
   107.4667       -4.7763540E-05
   107.5935       -5.3159303E-05
   107.7203       -5.8603629E-05
   107.8472       -6.4030181E-05
   107.9740       -6.9370733E-05