  -7.200000        2.0763836E-18
  -7.073156        2.0763973E-18
  -6.946313        2.0764245E-18
  -6.819469        2.0764645E-18
  -6.692626        2.0765164E-18
  -6.565782        2.0765784E-18
  -6.438938        2.0766491E-18
  -6.312095        2.0767275E-18
  -6.185251        2.0768108E-18
  -6.058407        2.0768973E-18
  -5.931563        2.0769858E-18
  -5.804720        2.0770737E-18
  -5.677876        2.0771591E-18
  -5.551033        2.0772410E-18
  -5.424189        2.0773177E-18
  -5.297346        2.0773876E-18
  -5.170502        2.0774498E-18
  -5.043658        2.0775036E-18
  -4.916814        2.0775491E-18
  -4.789971        2.0775861E-18
  -4.663127        2.0776155E-18
  -4.536283        2.0776368E-18
  -4.409440        2.0776515E-18
  -4.282596        2.0776602E-18
  -4.155753        2.0776643E-18
  -4.028909        2.0776651E-18
  -3.902065        2.0776645E-18
  -3.775222        2.0776635E-18
  -3.648378        2.0776639E-18
  -3.521534        2.0776666E-18
  -3.394691        2.0776728E-18
  -3.267847        2.0776829E-18
  -3.141004        2.0776990E-18
  -3.014160        2.0777201E-18
  -2.887316        2.0777476E-18
  -2.760473        2.0777809E-18
  -2.633629        2.0778200E-18
  -2.506785        2.0778643E-18
  -2.379942        2.0779126E-18
  -2.253098        2.0779654E-18
  -2.126254        2.0780206E-18
  -1.999411        2.0780766E-18
  -1.872567        2.0781327E-18
  -1.745723        2.0781879E-18
  -1.618880        2.0782406E-18
  -1.492036        2.0782898E-18
  -1.365193        2.0783339E-18
  -1.238349        2.0783726E-18
  -1.111505        2.0784046E-18
 -0.9846617        2.0784298E-18
 -0.8578180        2.0784470E-18
 -0.7309744        2.0784561E-18
 -0.6041307        2.0784580E-18
 -0.4772871        2.0784528E-18
 -0.3504435        2.0784406E-18
 -0.2235998        2.0784222E-18
 -9.6756198E-02    2.0783992E-18
  3.0087441E-02    2.0783717E-18
  0.1569311        2.0783417E-18
  0.2837747        2.0783109E-18
  0.4106184        2.0782801E-18
  0.5374620        2.0782506E-18
  0.6643056        2.0782241E-18
  0.7911493        2.0782020E-18
  0.9179929        2.0781860E-18
   1.044837        2.0781769E-18
   1.171680        2.0781761E-18
   1.298524        2.0781835E-18
   1.425367        2.0782005E-18
   1.552211        2.0782270E-18
   1.679055        2.0782623E-18
   1.805898        2.0783062E-18
   1.932742        2.0783577E-18
   2.059586        2.0784170E-18
   2.186429        2.0784817E-18
   2.313273        2.0785512E-18
   2.440117        2.0786236E-18
   2.566960        2.0786970E-18
   2.693804        2.0787696E-18
   2.820647        2.0788393E-18
   2.947491        2.0789055E-18
   3.074335        2.0789661E-18
   3.201178        2.0790194E-18
   3.328022        2.0790643E-18
   3.454866        2.0790992E-18
   3.581709        2.0791232E-18
   3.708553        2.0791365E-18
   3.835397        2.0791375E-18
   3.962240        2.0791261E-18
   4.089084        2.0791019E-18
   4.215928        2.0790657E-18
   4.342771        2.0790178E-18
   4.469615        2.0789588E-18
   4.596458        2.0788895E-18
   4.723302        2.0788114E-18
   4.850146        2.0787260E-18
   4.976989        2.0786364E-18
   5.103833        2.0785459E-18
   5.230677        2.0784576E-18
   5.357520        2.0783752E-18
   5.484364        2.0783027E-18
   5.611207        2.0782425E-18
   5.738051        2.0781962E-18
   5.864895        2.0781637E-18
   5.991738        2.0781428E-18
   6.118582        2.0781298E-18
   6.245426        2.0781165E-18
   6.372270        2.0780961E-18
   6.499113        2.0780584E-18
   6.625957        2.0779974E-18
   6.752800        2.0779089E-18
   6.879644        2.0777956E-18
   7.006487        2.0776664E-18
   7.133331        2.0775400E-18
   7.260175        2.0774418E-18
   7.387019        2.0774039E-18
   7.513862        2.0774598E-18
   7.640706        2.0776395E-18
   7.767550        2.0779617E-18
   7.894393        2.0784247E-18
   8.021236        2.0790010E-18
   8.148081        2.0796326E-18
   8.274924        2.0802296E-18
   8.401768        2.0806777E-18
   8.528611        2.0808493E-18
   8.655455        2.0806208E-18
   8.782298        2.0798952E-18
   8.909142        2.0786294E-18
   9.035986        2.0768559E-18
   9.162829        2.0747019E-18
   9.289673        2.0723949E-18
   9.416516        2.0702552E-18
   9.543361        2.0686722E-18
   9.670204        2.0680601E-18
   9.797048        2.0687998E-18
   9.923891        2.0711686E-18
   10.05073        2.0752729E-18
   10.17758        2.0809838E-18
   10.30442        2.0878942E-18
   10.43127        2.0953116E-18
   10.55811        2.1022822E-18
   10.68495        2.1076686E-18
   10.81180        2.1102693E-18
   10.93864        2.1089776E-18
   11.06548        2.1029684E-18
   11.19233        2.0918872E-18
   11.31917        2.0760234E-18
   11.44602        2.0564301E-18
   11.57286        2.0349648E-18
   11.69970        2.0142185E-18
   11.82655        1.9973188E-18
   11.95339        1.9875965E-18
   12.08023        1.9881336E-18
   12.20708        2.0012264E-18
   12.33392        2.0278293E-18
   12.46076        2.0670615E-18
   12.58761        2.1158784E-18
   12.71445        2.1690158E-18
   12.84130        2.2192929E-18
   12.96814        2.2583292E-18
   13.09498        2.2776708E-18
   13.22183        2.2702396E-18
   13.34867        2.2319403E-18
   13.47551        2.1631650E-18
   13.60236        2.0698929E-18
   13.72920        1.9640423E-18
   13.85604        1.8627927E-18
   13.98289        1.7867031E-18
   14.10973        1.7566272E-18
   14.23658        1.7896760E-18
   14.36342        1.8947294E-18
   14.49026        2.0682512E-18
   14.61711        2.2913151E-18
   14.74395        2.5287960E-18
   14.87079        2.7315270E-18
   14.99764        2.8418882E-18
   15.12448        2.8027541E-18
   15.25132        2.5690689E-18
   15.37817        2.1205869E-18
   15.50501        1.4736820E-18
   15.63186        6.8971963E-19
   15.75870       -1.2259023E-19
   15.88554       -8.1301023E-19
   16.01239       -1.2050063E-18
   16.13923       -1.1202403E-18
   16.26607       -4.1044120E-19
   16.39292        1.0070488E-18
   16.51976        3.1153874E-18
   16.64660        5.7724141E-18
   16.77345        8.6995065E-18
   16.90029        1.1490835E-17
   17.02714        1.3646611E-17
   17.15398        1.4630706E-17
   17.28082        1.3948996E-17
   17.40767        1.1240414E-17
   17.53451        6.3688205E-18
   17.66135       -4.9914984E-19
   17.78820       -8.8459861E-18
   17.91504       -1.7799393E-17
   18.04188       -2.6182988E-17
   18.16873       -3.2625522E-17
   18.29557       -3.5724098E-17
   18.42241       -3.4247541E-17
   18.54926       -2.7356974E-17
   18.67610       -1.4813486E-17
   18.80295        2.8608802E-18
   18.92979        2.4302216E-17
   19.05663        4.7331083E-17
   19.18348        6.9102496E-17
   19.31032        8.6380281E-17
   19.43716        9.5918468E-17
   19.56401        9.4913681E-17
   19.69085        8.1476218E-17
   19.81770        5.5055914E-17
   19.94454        1.6755445E-17
   20.07138       -3.0531336E-17
   20.19823       -8.2203158E-17
   20.32507       -1.3228058E-16
   20.45191       -1.7397338E-16
   20.57876       -2.0044512E-16
   20.70560       -2.0570153E-16
   20.83245       -1.8550176E-16
   20.95929       -1.3817631E-16
   21.08613       -6.5231979E-17
   21.21297        2.8362723E-17
   21.33982        1.3428954E-16
   21.46666        2.4142586E-16
   21.59351        3.3680913E-16
   21.72035        4.0695182E-16
   21.84719        4.3938836E-16
   21.97404        4.2429514E-16
   22.10088        3.5600167E-16
   22.22772        2.3420641E-16
   22.35457        6.4728656E-17
   22.48141       -1.4033385E-16
   22.60826       -3.6311778E-16
   22.73510       -5.8118758E-16
   22.86194       -7.6935119E-16
   22.98879       -9.0197246E-16
   23.11563       -9.5560055E-16
   23.24247       -9.1169174E-16
   23.36932       -7.5918033E-16
   23.49616       -4.9664522E-16
   23.62300       -1.3383363E-16
   23.74985        3.0766727E-16
   23.87669        7.9477615E-16
   24.00353        1.2843932E-15
   24.13038        1.7260406E-15
   24.25722        2.0656275E-15
   24.38407        2.2501924E-15
   24.51091        2.2333716E-15
   24.63775        1.9812185E-15
   24.76460        1.4778787E-15
   24.89144        7.3052155E-16
   25.01828       -2.2713948E-16
   25.14513       -1.3334277E-15
   25.27197       -2.4999991E-15
   25.39882       -3.6163127E-15
   25.52566       -4.5574540E-15
   25.65250       -5.1951300E-15
   25.77935       -5.4112010E-15
   25.90619       -5.1126477E-15
   26.03303       -4.2464362E-15
   26.15988       -2.8124145E-15
   26.28672       -8.7224102E-16
   26.41356        1.4475285E-15
   26.54041        3.9596719E-15
   26.66725        6.4286040E-15
   26.79410        8.5905573E-15
   26.92094        1.0180327E-14
   27.04778        1.0962136E-14
   27.17463        1.0761199E-14
   27.30147        9.4919325E-15
   27.42831        7.1785644E-15
   27.55516        3.9643594E-15
   27.68200        1.0672523E-16
   27.80884       -4.0429327E-15
   27.93569       -8.0736851E-15
   28.06253       -1.1560824E-14
   28.18937       -1.4117773E-14
   28.31622       -1.5447577E-14
   28.44306       -1.5386626E-14
   28.56991       -1.3933590E-14
   28.69675       -1.1257922E-14
   28.82359       -7.6847208E-15
   28.95044       -3.6559445E-15
   29.07728        3.2845293E-16
   29.20412        3.7824434E-15
   29.33097        6.3091181E-15
   29.45781        7.6678191E-15
   29.58466        7.8219469E-15
   29.71150        6.9578945E-15
   29.83834        5.4691160E-15
   29.96519        3.9040960E-15
   30.09203        2.8825141E-15
   30.21887        2.9893580E-15
   30.34572        4.6613231E-15
   30.47256        8.0826230E-15
   30.59941        1.3107904E-14
   30.72625        1.9227811E-14
   30.85309        2.5587949E-14
   30.97993        3.1065367E-14
   31.10678        3.4398255E-14
   31.23362        3.4356415E-14
   31.36047        2.9932626E-14
   31.48731        2.0529839E-14
   31.61415        6.1170949E-15
   31.74100       -1.2671378E-14
   31.86784       -3.4514126E-14
   31.99468       -5.7469105E-14
   32.12153       -7.9129899E-14
   32.24837       -9.6860488E-14
   32.37521       -1.0808645E-13
   32.50206       -1.1061140E-13
   32.62890       -1.0292171E-13
   32.75574       -8.4441487E-14
   32.88259       -5.5702845E-14
   33.00943       -1.8404623E-14
   33.13628        2.4656374E-14
   33.26312        6.9783250E-14
   33.38997        1.1269372E-13
   33.51681        1.4892559E-13
   33.64365        1.7429576E-13
   33.77050        1.8536796E-13
   33.89734        1.7988151E-13
   34.02418        1.5709427E-13
   34.15103        1.1799940E-13
   34.27787        6.5385102E-14
   34.40471        3.7190862E-15
   34.53156       -6.1145655E-14
   34.65840       -1.2243178E-13
   34.78524       -1.7303700E-13
   34.91209       -2.0623104E-13
   35.03893       -2.1639504E-13
   35.16578       -1.9974003E-13
   35.29262       -1.5493519E-13
   35.41946       -8.3575440E-14
   35.54631        9.5770102E-15
   35.67315        1.1663165E-13
   35.80000        2.2692571E-13
   35.92684        3.2771000E-13
   36.05368        4.0514757E-13
   36.18052        4.4557324E-13
   36.30737        4.3692974E-13
   36.43421        3.7026304E-13
   36.56105        2.4113513E-13
   36.68790        5.0798843E-14
   36.81474       -1.9301948E-13
   36.94159       -4.7586550E-13
   37.06843       -7.7693131E-13
   37.19527       -1.0701052E-12
   37.32212       -1.3256794E-12
   37.44896       -1.5126283E-12
   37.57581       -1.6012977E-12
   37.70265       -1.5662862E-12
   37.82949       -1.3892609E-12
   37.95634       -1.0614301E-12
   38.08318       -5.8540813E-13
   38.21002        2.3746914E-14
   38.33687        7.3847645E-13
   38.46371        1.5197084E-12
   38.59055        2.3188500E-12
   38.71740        3.0806577E-12
   38.84424        3.7467637E-12
   38.97108        4.2595792E-12
   39.09793        4.5662736E-12
   39.22477        4.6225246E-12
   39.35162        4.3957728E-12
   39.47846        3.8677876E-12
   39.60530        3.0364131E-12
   39.73215        1.9164626E-12
   39.85899        5.3978675E-13
   39.98583       -1.0453985E-12
   40.11268       -2.7758210E-12
   40.23952       -4.5749984E-12
   40.36636       -6.3555528E-12
   40.49321       -8.0219780E-12
   40.62005       -9.4738774E-12
   40.74689       -1.0609751E-11
   40.87374       -1.1331391E-11
   41.00058       -1.1548917E-11
   41.12743       -1.1186447E-11
   41.25427       -1.0188203E-11
   41.38111       -8.5248076E-12
   41.50796       -6.1993006E-12
   41.63480       -3.2523016E-12
   41.76165        2.3433095E-13
   41.88849        4.1360504E-12
   42.01533        8.2869935E-12
   42.14218        1.2484653E-11
   42.26902        1.6498067E-11
   42.39586        2.0079433E-11
   42.52271        2.2978695E-11
   42.64955        2.4960286E-11
   42.77639        2.5820837E-11
   42.90324        2.5406533E-11
   43.03008        2.3628507E-11
   43.15693        2.0474827E-11
   43.28377        1.6017663E-11
   43.41061        1.0414720E-11
   43.53746        3.9042489E-12
   43.66430       -3.2063458E-12
   43.79114       -1.0557771E-11
   43.91799       -1.7760930E-11
   44.04483       -2.4422247E-11
   44.17167       -3.0170321E-11
   44.29852       -3.4681785E-11
   44.42536       -3.7704256E-11
   44.55220       -3.9074421E-11
   44.67905       -3.8729627E-11
   44.80589       -3.6711936E-11
   44.93274       -3.3164076E-11
   45.05958       -2.8317524E-11
   45.18642       -2.2473492E-11
   45.31327       -1.5978312E-11
   45.44011       -9.1951342E-12
   45.56696       -2.4742827E-12
   45.69380        3.8752265E-12
   45.82064        9.6105207E-12
   45.94748        1.4573728E-11
   46.07433        1.8703030E-11
   46.20117        2.2034529E-11
   46.32801        2.4694394E-11
   46.45486        2.6881476E-11
   46.58170        2.8841462E-11
   46.70855        3.0834474E-11
   46.83539        3.3098694E-11
   46.96223        3.5813186E-11
   47.08908        3.9063426E-11
   47.21592        4.2813118E-11
   47.34277        4.6885530E-11
   47.46961        5.0957204E-11
   47.59645        5.4565859E-11
   47.72330        5.7133406E-11
   47.85014        5.8003533E-11
   47.97698        5.6492231E-11
   48.10383        5.1948109E-11
   48.23067        4.3818466E-11
   48.35751        3.1716092E-11
   48.48436        1.5481267E-11
   48.61120       -4.7665587E-12
   48.73804       -2.8592628E-11
   48.86489       -5.5230685E-11
   48.99173       -8.3589920E-11
   49.11858       -1.1228685E-10
   49.24542       -1.3970211E-10
   49.37226       -1.6406042E-10
   49.49911       -1.8353034E-10
   49.62595       -1.9633861E-10
   49.75279       -2.0089289E-10
   49.87964       -1.9590535E-10
   50.00648       -1.8050926E-10
   50.13332       -1.5436036E-10
   50.26017       -1.1771534E-10
   50.38701       -7.1480141E-11
   50.51385       -1.7222349E-11
   50.64070        4.2856618E-11
   50.76754        1.0599164E-10
   50.89439        1.6896626E-10
   51.02123        2.2826438E-10
   51.14808        2.8025574E-10
   51.27492        3.2140682E-10
   51.40176        3.4850617E-10
   51.52861        3.5889097E-10
   51.65545        3.5066033E-10
   51.78229        3.2285966E-10
   51.90914        2.7562103E-10
   52.03598        2.1024642E-10
   52.16282        1.2922217E-10
   52.28967        3.6158146E-11
   52.41651       -6.4350629E-11
   52.54335       -1.6693684E-10
   52.67020       -2.6573904E-10
   52.79704       -3.5473058E-10
   52.92389       -4.2808010E-10
   53.05073       -4.8052029E-10
   53.17757       -5.0770038E-10
   53.30442       -5.0649734E-10
   53.43126       -4.7526200E-10
   53.55810       -4.1398218E-10
   53.68495       -3.2434810E-10
   53.81179       -2.0971419E-10
   53.93863       -7.4957492E-11
   54.06548        7.3758631E-11
   54.19232        2.2930037E-10
   54.31916        3.8393810E-10
   54.44601        5.2975502E-10
   54.57285        6.5906353E-10
   54.69970        7.6480267E-10
   54.82654        8.4089347E-10
   54.95338        8.8253316E-10
   55.08023        8.8641305E-10
   55.20707        8.5085450E-10
   55.33392        7.7586032E-10
   55.46076        6.6308714E-10
   55.58760        5.1574883E-10
   55.71444        3.3846298E-10
   55.84129        1.3705671E-10
   55.96813       -8.1654267E-11
   56.09497       -3.1009867E-10
   56.22182       -5.4018445E-10
   56.34866       -7.6352791E-10
   56.47551       -9.7167308E-10
   56.60235       -1.1563018E-09
   56.72919       -1.3094379E-09
   56.85604       -1.4236489E-09
   56.98288       -1.4922548E-09
   57.10973       -1.5095447E-09
   57.23657       -1.4710076E-09
   57.36341       -1.3735758E-09
   57.49026       -1.2158770E-09
   57.61710       -9.9848385E-10
   57.74394       -7.2415135E-10
   57.87079       -3.9801759E-10
   57.99763       -2.7751327E-11
   58.12447        3.7637954E-10
   58.25132        8.0154183E-10
   58.37816        1.2324942E-09
   58.50500        1.6518836E-09
   58.63185        2.0406934E-09
   58.75869        2.3788436E-09
   58.88554        2.6459366E-09
   59.01238        2.8221310E-09
   59.13923        2.8891107E-09
   59.26607        2.8311169E-09
   59.39291        2.6359868E-09
   59.51975        2.2961471E-09
   59.64660        1.8094986E-09
   59.77344        1.1801251E-09
   59.90028        4.1876613E-10
   60.02713       -4.5701301E-10
   60.15397       -1.4230067E-09
   60.28082       -2.4489542E-09
   60.40766       -3.4995598E-09
   60.53450       -4.5359609E-09
   60.66135       -5.5176406E-09
   60.78819       -6.4047603E-09
   60.91504       -7.1608630E-09
   61.04188       -7.7558697E-09
   61.16872       -8.1692662E-09
   61.29557       -8.3933589E-09
   61.42241       -8.4364409E-09
   61.54925       -8.3257046E-09
   61.67610       -8.1096996E-09
   61.80294       -7.8601659E-09
   61.92978       -7.6730302E-09
   62.05663       -7.6683984E-09
   62.18347       -7.9893914E-09
   62.31031       -8.7996943E-09
   62.43716       -1.0279776E-08
   62.56400       -1.2621745E-08
   62.69085       -1.6022916E-08
   62.81769       -2.0678225E-08
   62.94453       -2.6771682E-08
   63.07138       -3.4467153E-08
   63.19822       -4.3898819E-08
   63.32506       -5.5161706E-08
   63.45191       -6.8302739E-08
   63.57875       -8.3312763E-08
   63.70559       -1.0012007E-07
   63.83244       -1.1858571E-07
   63.95928       -1.3850131E-07
   64.08613       -1.5958939E-07
   64.21297       -1.8150681E-07
   64.33981       -2.0385126E-07
   64.46666       -2.2617107E-07
   64.59350       -2.4797816E-07
   64.72034       -2.6876415E-07
   64.84719       -2.8801909E-07
   64.97403       -3.0525257E-07
   65.10088       -3.2001660E-07
   65.22771       -3.3192941E-07
   65.35456       -3.4069961E-07
   65.48141       -3.4614922E-07
   65.60825       -3.4823520E-07
   65.73509       -3.4706764E-07
   65.86194       -3.4292356E-07
   65.98878       -3.3625534E-07
   66.11562       -3.2769196E-07
   66.24247       -3.1803177E-07
   66.36931       -3.0822602E-07
   66.49615       -2.9935146E-07
   66.62300       -2.9257131E-07
   66.74984       -2.8908357E-07
   66.87669       -2.9005648E-07
   67.00353       -2.9655041E-07
   67.13037       -3.0942678E-07
   67.25722       -3.2924405E-07
   67.38406       -3.5614204E-07
   67.51090       -3.8971564E-07
   67.63775       -4.2888030E-07
   67.76459       -4.7173040E-07
   67.89143       -5.1539456E-07
   68.01828       -5.5589015E-07
   68.14512       -5.8798082E-07
   68.27197       -6.0504027E-07
   68.39881       -5.9892750E-07
   68.52565       -5.5987687E-07
   68.65250       -4.7640708E-07
   68.77934       -3.3525353E-07
   68.90618       -1.2132880E-07
   69.03303        1.8228654E-07
   69.15987        5.9431738E-07
   69.28671        1.1352308E-06
   69.41356        1.8271336E-06
   69.54041        2.6936266E-06
   69.66724        3.7596208E-06
   69.79409        5.0511089E-06
   69.92093        6.5948980E-06
   70.04778        8.4183048E-06
   70.17462        1.0548813E-05
   70.30146        1.3013710E-05
   70.42831        1.5839682E-05
   70.55515        1.9052408E-05
   70.68199        2.2676135E-05
   70.80884        2.6733234E-05
   70.93568        3.1243791E-05
   71.06252        3.6225185E-05
   71.18937        4.1691696E-05
   71.31622        4.7654135E-05
   71.44305        5.4119530E-05
   71.56990        6.1090839E-05
   71.69675        6.8566740E-05
   71.82359        7.6541430E-05
   71.95043        8.5004554E-05
   72.07728        9.3941169E-05
   72.20412        1.0333177E-04
   72.33096        1.1315244E-04
   72.45780        1.2337496E-04
   72.58465        1.3396717E-04
   72.71149        1.4489323E-04
   72.83833        1.5611401E-04
   72.96518        1.6758755E-04
   73.09203        1.7926963E-04
   73.21886        1.9111416E-04
   73.34571        2.0307387E-04
   73.47256        2.1510088E-04
   73.59940        2.2714726E-04
   73.72624        2.3916566E-04
   73.85309        2.5110989E-04
   73.97993        2.6293541E-04
   74.10677        2.7460002E-04
   74.23362        2.8606411E-04
   74.36046        2.9729129E-04
   74.48730        3.0824853E-04
   74.61415        3.1890662E-04
   74.74099        3.2924028E-04
   74.86784        3.3922831E-04
   74.99467        3.4885370E-04
   75.12152        3.5810345E-04
   75.24837        3.6696871E-04
   75.37521        3.7544433E-04
   75.50205        3.8352888E-04
   75.62890        3.9122425E-04
   75.75574        3.9853525E-04
   75.88258        4.0546944E-04
   76.00943        4.1203658E-04
   76.13627        4.1824830E-04
   76.26311        4.2411764E-04
   76.38996        4.2965868E-04
   76.51680        4.3488623E-04
   76.64365        4.3981540E-04
   76.77049        4.4446124E-04
   76.89733        4.4883860E-04
   77.02418        4.5296177E-04
   77.15102        4.5684434E-04
   77.27786        4.6049902E-04
   77.40471        4.6393767E-04
   77.53155        4.6717116E-04
   77.65839        4.7020943E-04
   77.78524        4.7306143E-04
   77.91208        4.7573540E-04
   78.03893        4.7823880E-04
   78.16577        4.8057851E-04
   78.29261        4.8276101E-04
   78.41946        4.8479246E-04
   78.54630        4.8667885E-04
   78.67314        4.8842619E-04
   78.79999        4.9004052E-04
   78.92683        4.9152807E-04
   79.05367        4.9289537E-04
   79.18052        4.9414899E-04
   79.30737        4.9529586E-04
   79.43420        4.9634301E-04
   79.56105        4.9729756E-04
   79.68790        4.9816660E-04
   79.81474        4.9895700E-04
   79.94158        4.9967517E-04
   80.06842        5.0032709E-04
   80.19527        5.0091790E-04
   80.32211        5.0145172E-04
   80.44895        5.0193164E-04
   80.57580        5.0235918E-04
   80.70264        5.0273456E-04
   80.82948        5.0305616E-04
   80.95633        5.0332071E-04
   81.08318        5.0352310E-04
   81.21001        5.0365640E-04
   81.33686        5.0371175E-04
   81.46371        5.0367857E-04
   81.59055        5.0354470E-04
   81.71739        5.0329632E-04
   81.84424        5.0291832E-04
   81.97108        5.0239469E-04
   82.09792        5.0170819E-04
   82.22476        5.0084124E-04
   82.35161        4.9977587E-04
   82.47845        4.9849390E-04
   82.60529        4.9697759E-04
   82.73214        4.9520948E-04
   82.85899        4.9317279E-04
   82.98582        4.9085170E-04
   83.11267        4.8823142E-04
   83.23952        4.8529819E-04
   83.36636        4.8203967E-04
   83.49320        4.7844465E-04
   83.62005        4.7450321E-04
   83.74689        4.7020649E-04
   83.87373        4.6554685E-04
   84.00058        4.6051745E-04
   84.12742        4.5511211E-04
   84.25426        4.4932531E-04
   84.38111        4.4315174E-04
   84.50795        4.3658627E-04
   84.63480        4.2962367E-04
   84.76163        4.2225842E-04
   84.88848        4.1448456E-04
   85.01533        4.0629570E-04
   85.14217        3.9768484E-04
   85.26901        3.8864440E-04
   85.39586        3.7916645E-04
   85.52270        3.6924263E-04
   85.64954        3.5886446E-04
   85.77639        3.4802372E-04
   85.90323        3.3671258E-04
   86.03008        3.2492421E-04
   86.15692        3.1265305E-04
   86.28376        2.9989536E-04
   86.41061        2.8664977E-04
   86.53745        2.7291765E-04
   86.66429        2.5870375E-04
   86.79114        2.4401651E-04
   86.91798        2.2886867E-04
   87.04482        2.1327745E-04
   87.17167        1.9726493E-04
   87.29851        1.8085827E-04
   87.42535        1.6408980E-04
   87.55220        1.4699697E-04
   87.67904        1.2962233E-04
   87.80589        1.1201327E-04
   87.93273        9.4221570E-05
   88.05957        7.6303186E-05
   88.18642        5.8317451E-05
   88.31326        4.0326624E-05
   88.44010        2.2395041E-05
   88.56695        4.5884040E-06
   88.69379       -1.3027067E-05
   88.82063       -3.0385463E-05
   88.94748       -4.7422087E-05
   89.07433       -6.4074258E-05
   89.20116       -8.0282123E-05
   89.32801       -9.5989424E-05
   89.45486       -1.1114418E-04
   89.58170       -1.2569928E-04
   89.70854       -1.3961298E-04
   89.83538       -1.5284927E-04
   89.96223       -1.6537818E-04
   90.08907       -1.7717593E-04
   90.21591       -1.8822491E-04
   90.34276       -1.9851363E-04
   90.46960       -2.0803651E-04
   90.59644       -2.1679350E-04
   90.72329       -2.2478978E-04
   90.85014       -2.3203516E-04
   90.97697       -2.3854362E-04
   91.10382       -2.4433259E-04
   91.23067       -2.4942242E-04
   91.35751       -2.5383563E-04
   91.48435       -2.5759634E-04
   91.61120       -2.6072963E-04
   91.73804       -2.6326094E-04
   91.86488       -2.6521549E-04
   91.99173       -2.6661792E-04
   92.11857       -2.6749173E-04
   92.24541       -2.6785923E-04
   92.37225       -2.6774101E-04
   92.49910       -2.6715605E-04
   92.62595       -2.6612155E-04
   92.75278       -2.6465292E-04
   92.87963       -2.6276396E-04
   93.00648       -2.6046697E-04
   93.13332       -2.5777300E-04
   93.26016       -2.5469204E-04
   93.38701       -2.5123337E-04
   93.51385       -2.4740570E-04
   93.64069       -2.4321763E-04
   93.76754       -2.3867779E-04
   93.89438       -2.3379516E-04
   94.02122       -2.2857917E-04
   94.14807       -2.2303996E-04
   94.27491       -2.1718846E-04
   94.40176       -2.1103640E-04
   94.52859       -2.0459641E-04
   94.65544       -1.9788189E-04
   94.78229       -1.9090698E-04
   94.90913       -1.8368638E-04
   95.03597       -1.7623522E-04
   95.16282       -1.6856883E-04
   95.28966       -1.6070264E-04
   95.41650       -1.5265182E-04
   95.54335       -1.4443128E-04
   95.67019       -1.3605534E-04
   95.79704       -1.2753771E-04
   95.92388       -1.1889132E-04
   96.05072       -1.1012831E-04
   96.17757       -1.0126003E-04
   96.30441       -9.2297138E-05
   96.43125       -8.3249703E-05
   96.55810       -7.4127376E-05
   96.68494       -6.4939661E-05
   96.81178       -5.5696182E-05
   96.93863       -4.6407000E-05
   97.06547       -3.7082933E-05
   97.19231       -2.7735916E-05
   97.31916       -1.8379351E-05
   97.44600       -9.0283902E-06
   97.57285        2.9975854E-07
   97.69969        9.5856276E-06
   97.82653        1.8807323E-05
   97.95338        2.7940445E-05
   98.08022        3.6958103E-05
   98.20706        4.5830991E-05
   98.33391        5.4527605E-05
   98.46075        6.3014500E-05
   98.58759        7.1256691E-05
   98.71444        7.9218058E-05
   98.84129        8.6861903E-05
   98.96812        9.4151510E-05
   99.09497        1.0105077E-04
   99.22182        1.0752478E-04
   99.34866        1.1354053E-04
   99.47550        1.1906750E-04
   99.60234        1.2407826E-04
   99.72919        1.2854904E-04
   99.85603        1.3246013E-04
   99.98287        1.3579636E-04
   100.1097        1.3854734E-04
   100.2366        1.4070774E-04
   100.3634        1.4227728E-04
   100.4902        1.4326084E-04
   100.6171        1.4366825E-04
   100.7439        1.4351409E-04
   100.8708        1.4281740E-04
   100.9976        1.4160133E-04
   101.1245        1.3989257E-04
   101.2513        1.3772093E-04
   101.3782        1.3511878E-04
   101.5050        1.3212049E-04
   101.6318        1.2876185E-04
   101.7587        1.2507960E-04
   101.8855        1.2111091E-04
   102.0124        1.1689293E-04
   102.1392        1.1246243E-04
   102.2661        1.0785549E-04
   102.3929        1.0310730E-04
   102.5197        9.8251978E-05
   102.6466        9.3322458E-05
   102.7734        8.8350542E-05
   102.9003        8.3366846E-05
   103.0271        7.8400997E-05
   103.1540        7.3481649E-05
   103.2808        6.8636647E-05
   103.4077        6.3893182E-05
   103.5345        5.9277849E-05
   103.6613        5.4816795E-05
   103.7882        5.0535746E-05
   103.9150        4.6460002E-05
   104.0419        4.2614414E-05
   104.1687        3.9023249E-05
   104.2956        3.5710018E-05
   104.4224        3.2697259E-05
   104.5492        3.0006224E-05
   104.6761        2.7656562E-05
   104.8029        2.5665939E-05
   104.9298        2.4049636E-05
   105.0566        2.2820150E-05
   105.1835        2.1986785E-05
   105.3103        2.1555301E-05
   105.4371        2.1527554E-05
   105.5640        2.1901256E-05
   105.6908        2.2669774E-05
   105.8177        2.3822022E-05
   105.9445        2.5342475E-05
   106.0714        2.7211281E-05
   106.1982        2.9404489E-05
   106.3251        3.1894408E-05
   106.4519        3.4650042E-05
   106.5787        3.7637688E-05
   106.7056        4.0821560E-05
   106.8324        4.4164521E-05
   106.9593        4.7628873E-05
   107.0861        5.1177169E-05
   107.2130        5.4772994E-05
   107.3398        5.8381782E-05
   107.4667        6.1971536E-05
   107.5935        6.5513530E-05
   107.7203        6.8982816E-05
   107.8472        7.2358736E-05
   107.9740        7.5625219E-05