  -7.200000        1.0695449E-17
  -7.073156        1.0695449E-17
  -6.946313        1.0695445E-17
  -6.819469        1.0695442E-17
  -6.692626        1.0695437E-17
  -6.565782        1.0695431E-17
  -6.438938        1.0695426E-17
  -6.312095        1.0695421E-17
  -6.185251        1.0695416E-17
  -6.058407        1.0695410E-17
  -5.931563        1.0695406E-17
  -5.804720        1.0695402E-17
  -5.677876        1.0695399E-17
  -5.551033        1.0695397E-17
  -5.424189        1.0695396E-17
  -5.297346        1.0695394E-17
  -5.170502        1.0695392E-17
  -5.043658        1.0695392E-17
  -4.916814        1.0695390E-17
  -4.789971        1.0695387E-17
  -4.663127        1.0695386E-17
  -4.536283        1.0695384E-17
  -4.409440        1.0695382E-17
  -4.282596        1.0695382E-17
  -4.155753        1.0695382E-17
  -4.028909        1.0695383E-17
  -3.902065        1.0695386E-17
  -3.775222        1.0695389E-17
  -3.648378        1.0695392E-17
  -3.521534        1.0695397E-17
  -3.394691        1.0695402E-17
  -3.267847        1.0695408E-17
  -3.141004        1.0695412E-17
  -3.014160        1.0695416E-17
  -2.887316        1.0695420E-17
  -2.760473        1.0695422E-17
  -2.633629        1.0695424E-17
  -2.506785        1.0695425E-17
  -2.379942        1.0695427E-17
  -2.253098        1.0695429E-17
  -2.126254        1.0695431E-17
  -1.999411        1.0695435E-17
  -1.872567        1.0695440E-17
  -1.745723        1.0695445E-17
  -1.618880        1.0695453E-17
  -1.492036        1.0695463E-17
  -1.365193        1.0695474E-17
  -1.238349        1.0695487E-17
  -1.111505        1.0695500E-17
 -0.9846617        1.0695514E-17
 -0.8578180        1.0695529E-17
 -0.7309744        1.0695545E-17
 -0.6041307        1.0695559E-17
 -0.4772871        1.0695576E-17
 -0.3504435        1.0695593E-17
 -0.2235998        1.0695609E-17
 -9.6756198E-02    1.0695626E-17
  3.0087441E-02    1.0695644E-17
  0.1569311        1.0695660E-17
  0.2837747        1.0695677E-17
  0.4106184        1.0695693E-17
  0.5374620        1.0695709E-17
  0.6643056        1.0695724E-17
  0.7911493        1.0695736E-17
  0.9179929        1.0695747E-17
   1.044837        1.0695756E-17
   1.171680        1.0695761E-17
   1.298524        1.0695763E-17
   1.425367        1.0695762E-17
   1.552211        1.0695758E-17
   1.679055        1.0695751E-17
   1.805898        1.0695741E-17
   1.932742        1.0695727E-17
   2.059586        1.0695712E-17
   2.186429        1.0695695E-17
   2.313273        1.0695676E-17
   2.440117        1.0695656E-17
   2.566960        1.0695636E-17
   2.693804        1.0695614E-17
   2.820647        1.0695591E-17
   2.947491        1.0695568E-17
   3.074335        1.0695543E-17
   3.201178        1.0695517E-17
   3.328022        1.0695490E-17
   3.454866        1.0695464E-17
   3.581709        1.0695435E-17
   3.708553        1.0695408E-17
   3.835397        1.0695380E-17
   3.962240        1.0695353E-17
   4.089084        1.0695325E-17
   4.215928        1.0695297E-17
   4.342771        1.0695269E-17
   4.469615        1.0695240E-17
   4.596458        1.0695210E-17
   4.723302        1.0695178E-17
   4.850146        1.0695145E-17
   4.976989        1.0695113E-17
   5.103833        1.0695084E-17
   5.230677        1.0695062E-17
   5.357520        1.0695052E-17
   5.484364        1.0695058E-17
   5.611207        1.0695085E-17
   5.738051        1.0695133E-17
   5.864895        1.0695204E-17
   5.991738        1.0695291E-17
   6.118582        1.0695380E-17
   6.245426        1.0695456E-17
   6.372270        1.0695497E-17
   6.499113        1.0695479E-17
   6.625957        1.0695384E-17
   6.752800        1.0695197E-17
   6.879644        1.0694922E-17
   7.006487        1.0694578E-17
   7.133331        1.0694210E-17
   7.260175        1.0693882E-17
   7.387019        1.0693678E-17
   7.513862        1.0693688E-17
   7.640706        1.0693993E-17
   7.767550        1.0694643E-17
   7.894393        1.0695645E-17
   8.021236        1.0696934E-17
   8.148081        1.0698374E-17
   8.274924        1.0699745E-17
   8.401768        1.0700770E-17
   8.528611        1.0701141E-17
   8.655455        1.0700573E-17
   8.782298        1.0698853E-17
   8.909142        1.0695911E-17
   9.035986        1.0691872E-17
   9.162829        1.0687089E-17
   9.289673        1.0682153E-17
   9.416516        1.0677858E-17
   9.543361        1.0675118E-17
   9.670204        1.0674861E-17
   9.797048        1.0677870E-17
   9.923891        1.0684629E-17
   10.05073        1.0695165E-17
   10.17758        1.0708929E-17
   10.30442        1.0724740E-17
   10.43127        1.0740793E-17
   10.55811        1.0754772E-17
   10.68495        1.0764057E-17
   10.81180        1.0766004E-17
   10.93864        1.0758320E-17
   11.06548        1.0739455E-17
   11.19233        1.0709004E-17
   11.31917        1.0668066E-17
   11.44602        1.0619504E-17
   11.57286        1.0568031E-17
   11.69970        1.0520095E-17
   11.82655        1.0483475E-17
   11.95339        1.0466569E-17
   12.08023        1.0477355E-17
   12.20708        1.0522084E-17
   12.33392        1.0603785E-17
   12.46076        1.0720784E-17
   12.58761        1.0865495E-17
   12.71445        1.1023785E-17
   12.84130        1.1175262E-17
   12.96814        1.1294755E-17
   13.09498        1.1355149E-17
   13.22183        1.1331507E-17
   13.34867        1.1206134E-17
   13.47551        1.0973907E-17
   13.60236        1.0646888E-17
   13.72920        1.0257086E-17
   13.85604        9.8561531E-18
   13.98289        9.5111328E-18
   14.10973        9.2958309E-18
   14.23658        9.2782393E-18
   14.36342        9.5053971E-18
   14.49026        9.9880595E-18
   14.61711        1.0688376E-17
   14.74395        1.1514090E-17
   14.87079        1.2322510E-17
   14.99764        1.2936376E-17
   15.12448        1.3171851E-17
   15.25132        1.2876293E-17
   15.37817        1.1970707E-17
   15.50501        1.0489150E-17
   15.63186        8.6057456E-18
   15.75870        6.6397895E-18
   15.88554        5.0312198E-18
   16.01239        4.2827624E-18
   16.13923        4.8709622E-18
   16.26607        7.1354916E-18
   16.39292        1.1163392E-17
   16.51976        1.6690781E-17
   16.64660        2.3047391E-17
   16.77345        2.9167831E-17
   16.90029        3.3686550E-17
   17.02714        3.5121477E-17
   17.15398        3.2134799E-17
   17.28082        2.3841015E-17
   17.40767        1.0114842E-17
   17.53451       -8.1610094E-18
   17.66135       -2.8972415E-17
   17.78820       -4.9231792E-17
   17.91504       -6.5054466E-17
   18.04188       -7.2258429E-17
   18.16873       -6.7051519E-17
   18.29557       -4.6826205E-17
   18.42241       -1.0942298E-17
   18.54926        3.8648423E-17
   18.67610        9.7087638E-17
   18.80295        1.5673700E-16
   18.92979        2.0782710E-16
   19.05663        2.3963491E-16
   19.18348        2.4210242E-16
   19.31032        2.0771158E-16
   19.43716        1.3334488E-16
   19.56401        2.1806081E-17
   19.69085       -1.1733441E-16
   19.81770       -2.6785678E-16
   19.94454       -4.0815130E-16
   20.07138       -5.1363977E-16
   20.19823       -5.6018386E-16
   20.32507       -5.2810286E-16
   20.45191       -4.0625010E-16
   20.57876       -1.9548234E-16
   20.70560        8.9163307E-17
   20.83245        4.1817842E-16
   20.95929        7.4956561E-16
   21.08613        1.0331724E-15
   21.21297        1.2170832E-15
   21.33982        1.2553913E-15
   21.46666        1.1163365E-15
   21.59351        7.8957240E-16
   21.72035        2.9127854E-16
   21.84719       -3.3402461E-16
   21.97404       -1.0157393E-15
   22.10088       -1.6637821E-15
   22.22772       -2.1791060E-15
   22.35457       -2.4670790E-15
   22.48141       -2.4520615E-15
   22.60826       -2.0911132E-15
   22.73510       -1.3846484E-15
   22.86194       -3.8204926E-16
   22.98879        8.1919876E-16
   23.11563        2.0814672E-15
   23.24247        3.2416415E-15
   23.36932        4.1310208E-15
   23.49616        4.5980815E-15
   23.62300        4.5310626E-15
   23.74985        3.8771040E-15
   23.87669        2.6548996E-15
   24.00353        9.5856453E-16
   24.13038       -1.0484634E-15
   24.25722       -3.1492789E-15
   24.38407       -5.0974756E-15
   24.51091       -6.6463266E-15
   24.63775       -7.5794067E-15
   24.76460       -7.7385506E-15
   24.89144       -7.0453249E-15
   25.01828       -5.5130867E-15
   25.14513       -3.2480256E-15
   25.27197       -4.3917740E-16
   25.39882        2.6610078E-15
   25.52566        5.7626828E-15
   25.65250        8.5675511E-15
   25.77935        1.0796940E-14
   25.90619        1.2215730E-14
   26.03303        1.2649942E-14
   26.15988        1.1997156E-14
   26.28672        1.0230411E-14
   26.41356        7.3973335E-15
   26.54041        3.6168548E-15
   26.66725       -9.2430617E-16
   26.79410       -5.9740399E-15
   26.92094       -1.1216234E-14
   27.04778       -1.6272943E-14
   27.17463       -2.0710594E-14
   27.30147       -2.4054384E-14
   27.42831       -2.5814823E-14
   27.55516       -2.5528987E-14
   27.68200       -2.2816484E-14
   27.80884       -1.7446541E-14
   27.93569       -9.4087607E-15
   28.06253        1.0233311E-15
   28.18937        1.3249197E-14
   28.31622        2.6332096E-14
   28.44306        3.9035086E-14
   28.56991        4.9908682E-14
   28.69675        5.7429437E-14
   28.82359        6.0180234E-14
   28.95044        5.7054093E-14
   29.07728        4.7455766E-14
   29.20412        3.1470618E-14
   29.33097        9.9695337E-15
   29.45781       -1.5377070E-14
   29.58466       -4.2193832E-14
   29.71150       -6.7607568E-14
   29.83834       -8.8554476E-14
   29.96519       -1.0215784E-13
   30.09203       -1.0613157E-13
   30.21887       -9.9154720E-14
   30.34572       -8.1158475E-14
   30.47256       -5.3472583E-14
   30.59941       -1.8791716E-14
   30.72625        1.9055873E-14
   30.85309        5.5528065E-14
   30.97993        8.5938526E-14
   31.10678        1.0611093E-13
   31.23362        1.1303195E-13
   31.36047        1.0540719E-13
   31.48731        8.4026854E-14
   31.61415        5.1864807E-14
   31.74100        1.3864600E-14
   31.86784       -2.3594169E-14
   31.99468       -5.3510134E-14
   32.12153       -6.9271506E-14
   32.24837       -6.5742564E-14
   32.37521       -4.0278805E-14
   32.50206        6.4832418E-15
   32.62890        7.0202050E-14
   32.75574        1.4287960E-13
   32.88259        2.1343719E-13
   33.00943        2.6880855E-13
   33.13628        2.9547057E-13
   33.26312        2.8126525E-13
   33.38997        2.1731191E-13
   33.51681        9.9775040E-14
   33.64365       -6.8755480E-14
   33.77050       -2.7849346E-13
   33.89734       -5.1246670E-13
   34.02418       -7.4740442E-13
   34.15103       -9.5550380E-13
   34.27787       -1.1069763E-12
   34.40471       -1.1731722E-12
   34.53156       -1.1299971E-12
   34.65840       -9.6127045E-13
   34.78524       -6.6164885E-13
   34.91209       -2.3874360E-13
   35.03893        2.8588484E-13
   35.16578        8.7708850E-13
   35.29262        1.4879590E-12
   35.41946        2.0630902E-12
   35.54631        2.5430923E-12
   35.67315        2.8700265E-12
   35.80000        2.9933031E-12
   35.92684        2.8754896E-12
   36.05368        2.4974335E-12
   36.18052        1.8621101E-12
   36.30737        9.9667865E-13
   36.43421       -4.7644173E-14
   36.56105       -1.1980973E-12
   36.68790       -2.3652590E-12
   36.81474       -3.4500447E-12
   36.94159       -4.3523106E-12
   37.06843       -4.9803503E-12
   37.19527       -5.2603976E-12
   37.32212       -5.1451703E-12
   37.44896       -4.6204837E-12
   37.57581       -3.7090899E-12
   37.70265       -2.4710897E-12
   37.82949       -1.0005861E-12
   37.95634        5.8138748E-13
   38.08318        2.1372353E-12
   38.21002        3.5256260E-12
   38.33687        4.6156195E-12
   38.46371        5.3006813E-12
   38.59055        5.5110855E-12
   38.71740        5.2232472E-12
   38.84424        4.4647736E-12
   38.97108        3.3143822E-12
   39.09793        1.8963553E-12
   39.22477        3.6977404E-13
   39.35162       -1.0866378E-12
   39.47846       -2.2926890E-12
   39.60530       -3.0861392E-12
   39.73215       -3.3413500E-12
   39.85899       -2.9851373E-12
   39.98583       -2.0080099E-12
   40.11268       -4.6939107E-13
   40.23952        1.5039688E-12
   40.36636        3.7265026E-12
   40.49321        5.9686240E-12
   40.62005        7.9765153E-12
   40.74689        9.4950601E-12
   40.87374        1.0291755E-11
   41.00058        1.0179304E-11
   41.12743        9.0347686E-12
   41.25427        6.8135155E-12
   41.38111        3.5567309E-12
   41.50796       -6.0805435E-13
   41.63480       -5.4733032E-12
   41.76165       -1.0763957E-11
   41.88849       -1.6154803E-11
   42.01533       -2.1291195E-11
   42.14218       -2.5811410E-11
   42.26902       -2.9369052E-11
   42.39586       -3.1654054E-11
   42.52271       -3.2411226E-11
   42.64955       -3.1455581E-11
   42.77639       -2.8684052E-11
   42.90324       -2.4083452E-11
   43.03008       -1.7734678E-11
   43.15693       -9.8131945E-12
   43.28377       -5.8584691E-13
   43.41061        9.5961147E-12
   43.53746        2.0307945E-11
   43.66430        3.1066413E-11
   43.79114        4.1349042E-11
   43.91799        5.0617406E-11
   44.04483        5.8343989E-11
   44.17167        6.4041668E-11
   44.29852        6.7294358E-11
   44.42536        6.7786755E-11
   44.55220        6.5330949E-11
   44.67905        5.9887352E-11
   44.80589        5.1577406E-11
   44.93274        4.0686090E-11
   45.05958        2.7652686E-11
   45.18642        1.3049341E-11
   45.31327       -2.4520522E-12
   45.44011       -1.8122949E-11
   45.56696       -3.3228347E-11
   45.69380       -4.7080305E-11
   45.82064       -5.9090309E-11
   45.94748       -6.8815620E-11
   46.07433       -7.5994946E-11
   46.20117       -8.0569350E-11
   46.32801       -8.2685019E-11
   46.45486       -8.2676400E-11
   46.58170       -8.1029357E-11
   46.70855       -7.8326193E-11
   46.83539       -7.5176192E-11
   46.96223       -7.2137005E-11
   47.08908       -6.9633931E-11
   47.21592       -6.7885003E-11
   47.34277       -6.6840491E-11
   47.46961       -6.6144784E-11
   47.59645       -6.5128236E-11
   47.72330       -6.2833794E-11
   47.85014       -5.8081279E-11
   47.97698       -4.9568252E-11
   48.10383       -3.6002788E-11
   48.23067       -1.6259468E-11
   48.35751        1.0453942E-11
   48.48436        4.4434668E-11
   48.61120        8.5345377E-11
   48.73804        1.3211468E-10
   48.86489        1.8289410E-10
   48.99173        2.3508431E-10
   49.11858        2.8543837E-10
   49.24542        3.3024250E-10
   49.37226        3.6556735E-10
   49.49911        3.8757442E-10
   49.62595        3.9285430E-10
   49.75279        3.7876863E-10
   49.87964        3.4376210E-10
   50.00648        2.8761230E-10
   50.13332        2.1158651E-10
   50.26017        1.1848213E-10
   50.38701        1.2536007E-11
   50.51385       -1.0079938E-10
   50.64070       -2.1520266E-10
   50.76754       -3.2392927E-10
   50.89439       -4.2032153E-10
   51.02123       -4.9833948E-10
   51.14808       -5.5306493E-10
   51.27492       -5.8113103E-10
   51.40176       -5.8103516E-10
   51.52861       -5.5330224E-10
   51.65545       -5.0047955E-10
   51.78229       -4.2695866E-10
   51.90914       -3.3863753E-10
   52.03598       -2.4245012E-10
   52.16282       -1.4580390E-10
   52.28967       -5.5974010E-11
   52.41651        2.0493275E-11
   52.54335        7.8316721E-11
   52.67020        1.1391097E-10
   52.79704        1.2567787E-10
   52.92389        1.1413633E-10
   53.05073        8.1884444E-11
   53.17757        3.3401018E-11
   53.30442       -2.5293181E-11
   53.43126       -8.7084416E-11
   53.55810       -1.4428889E-10
   53.68495       -1.8920980E-10
   53.81179       -2.1469018E-10
   53.93863       -2.1462643E-10
   54.06548       -1.8441304E-10
   54.19232       -1.2129596E-10
   54.31916       -2.4619178E-11
   54.44601        1.0404468E-10
   54.57285        2.6088254E-10
   54.69970        4.3994683E-10
   54.82654        6.3337313E-10
   54.95338        8.3170132E-10
   55.08023        1.0242887E-09
   55.20707        1.1997989E-09
   55.33392        1.3467495E-09
   55.46076        1.4540950E-09
   55.58760        1.5118181E-09
   55.71444        1.5115014E-09
   55.84129        1.4468453E-09
   55.96813        1.3141004E-09
   56.09497        1.1123855E-09
   56.22182        8.4386431E-10
   56.34866        5.1376553E-10
   56.47551        1.3023842E-10
   56.60235       -2.9594840E-10
   56.72919       -7.5184897E-10
   56.85604       -1.2228897E-09
   56.98288       -1.6934878E-09
   57.10973       -2.1476929E-09
   57.23657       -2.5698026E-09
   57.36341       -2.9449092E-09
   57.49026       -3.2593408E-09
   57.61710       -3.5009735E-09
   57.74394       -3.6594103E-09
   57.87079       -3.7260328E-09
   57.99763       -3.6939538E-09
   58.12447       -3.5579149E-09
   58.25132       -3.3141689E-09
   58.37816       -2.9604146E-09
   58.50500       -2.4958153E-09
   58.63185       -1.9211586E-09
   58.75869       -1.2391611E-09
   58.88554       -4.5492726E-10
   59.01238        4.2347048E-10
   59.13923        1.3843455E-09
   59.26607        2.4117668E-09
   59.39291        3.4850440E-09
   59.51975        4.5784483E-09
   59.64660        5.6612834E-09
   59.77344        6.6984205E-09
   59.90028        7.6513906E-09
   60.02713        8.4800922E-09
   60.15397        9.1451273E-09
   60.28082        9.6107469E-09
   60.40766        9.8482973E-09
   60.53450        9.8400381E-09
   60.66135        9.5831236E-09
   60.78819        9.0935135E-09
   60.91504        8.4095300E-09
   61.04188        7.5947852E-09
   61.16872        6.7401866E-09
   61.29557        5.9647665E-09
   61.42241        5.4151337E-09
   61.54925        5.2633906E-09
   61.67610        5.7034537E-09
   61.80294        6.9457995E-09
   61.92978        9.2107575E-09
   62.05663        1.2720538E-08
   62.18347        1.7690303E-08
   62.31031        2.4318604E-08
   62.43716        3.2777660E-08
   62.56400        4.3203819E-08
   62.69085        5.5688741E-08
   62.81769        7.0271717E-08
   62.94453        8.6933504E-08
   63.07138        1.0559215E-07
   63.19822        1.2610104E-07
   63.32506        1.4824954E-07
   63.45191        1.7176640E-07
   63.57875        1.9632608E-07
   63.70559        2.2155825E-07
   63.83244        2.4706014E-07
   63.95928        2.7241217E-07
   64.08613        2.9719624E-07
   64.21297        3.2101693E-07
   64.33981        3.4352476E-07
   64.46666        3.6444143E-07
   64.59350        3.8358607E-07
   64.72034        4.0090200E-07
   64.84719        4.1648252E-07
   64.97403        4.3059504E-07
   65.10088        4.4370188E-07
   65.22771        4.5647636E-07
   65.35456        4.6981233E-07
   65.48141        4.8482582E-07
   65.60825        5.0284689E-07
   65.73509        5.2539980E-07
   65.86194        5.5417075E-07
   65.98878        5.9096101E-07
   66.11562        6.3762508E-07
   66.24247        6.9599326E-07
   66.36931        7.6777786E-07
   66.49615        8.5446482E-07
   66.62300        9.5718963E-07
   66.74984        1.0766012E-06
   66.87669        1.2127139E-06
   67.00353        1.3647515E-06
   67.13037        1.5309867E-06
   67.25722        1.7085777E-06
   67.38406        1.8934089E-06
   67.51090        2.0799384E-06
   67.63775        2.2610568E-06
   67.76459        2.4279634E-06
   67.89143        2.5700645E-06
   68.01828        2.6748960E-06
   68.14512        2.7280801E-06
   68.27197        2.7133128E-06
   68.39881        2.6123953E-06
   68.52565        2.4053029E-06
   68.65250        2.0702998E-06
   68.77934        1.5840993E-06
   68.90618        9.2206932E-07
   69.03303        5.8485750E-08
   69.15987       -1.0331715E-06
   69.28671       -2.3798800E-06
   69.41356       -4.0086993E-06
   69.54041       -5.9463591E-06
   69.66724       -8.2188217E-06
   69.79409       -1.0850827E-05
   69.92093       -1.3865414E-05
   70.04778       -1.7283452E-05
   70.17462       -2.1123158E-05
   70.30146       -2.5399653E-05
   70.42831       -3.0124516E-05
   70.55515       -3.5305391E-05
   70.68199       -4.0945619E-05
   70.80884       -4.7043948E-05
   70.93568       -5.3594271E-05
   71.06252       -6.0585466E-05
   71.18937       -6.8001274E-05
   71.31622       -7.5820288E-05
   71.44305       -8.4015992E-05
   71.56990       -9.2556918E-05
   71.69675       -1.0140683E-04
   71.82359       -1.1052508E-04
   71.95043       -1.1986691E-04
   72.07728       -1.2938396E-04
   72.20412       -1.3902475E-04
   72.33096       -1.4873526E-04
   72.45780       -1.5845952E-04
   72.58465       -1.6814031E-04
   72.71149       -1.7771975E-04
   72.83833       -1.8714007E-04
   72.96518       -1.9634431E-04
   73.09203       -2.0527685E-04
   73.21886       -2.1388427E-04
   73.34571       -2.2211578E-04
   73.47256       -2.2992391E-04
   73.59940       -2.3726496E-04
   73.72624       -2.4409950E-04
   73.85309       -2.5039265E-04
   73.97993       -2.5611452E-04
   74.10677       -2.6124023E-04
   74.23362       -2.6575028E-04
   74.36046       -2.6963034E-04
   74.48730       -2.7287146E-04
   74.61415       -2.7546973E-04
   74.74099       -2.7742627E-04
   74.86784       -2.7874683E-04
   74.99467       -2.7944156E-04
   75.12152       -2.7952463E-04
   75.24837       -2.7901380E-04
   75.37521       -2.7792994E-04
   75.50205       -2.7629675E-04
   75.62890       -2.7413998E-04
   75.75574       -2.7148728E-04
   75.88258       -2.6836758E-04
   76.00943       -2.6481072E-04
   76.13627       -2.6084698E-04
   76.26311       -2.5650681E-04
   76.38996       -2.5182049E-04
   76.51680       -2.4681783E-04
   76.64365       -2.4152795E-04
   76.77049       -2.3597918E-04
   76.89733       -2.3019892E-04
   77.02418       -2.2421351E-04
   77.15102       -2.1804831E-04
   77.27786       -2.1172776E-04
   77.40471       -2.0527522E-04
   77.53155       -1.9871330E-04
   77.65839       -1.9206379E-04
   77.78524       -1.8534783E-04
   77.91208       -1.7858608E-04
   78.03893       -1.7179870E-04
   78.16577       -1.6500553E-04
   78.29261       -1.5822625E-04
   78.41946       -1.5148018E-04
   78.54630       -1.4478661E-04
   78.67314       -1.3816456E-04
   78.79999       -1.3163290E-04
   78.92683       -1.2521018E-04
   79.05367       -1.1891460E-04
   79.18052       -1.1276383E-04
   79.30737       -1.0677482E-04
   79.43420       -1.0096366E-04
   79.56105       -9.5345305E-05
   79.68790       -8.9933383E-05
   79.81474       -8.4739877E-05
   79.94158       -7.9774974E-05
   80.06842       -7.5046708E-05
   80.19527       -7.0560840E-05
   80.32211       -6.6320543E-05
   80.44895       -6.2326260E-05
   80.57580       -5.8575595E-05
   80.70264       -5.5063141E-05
   80.82948       -5.1780455E-05
   80.95633       -4.8716047E-05
   81.08318       -4.5855420E-05
   81.21001       -4.3181219E-05
   81.33686       -4.0673367E-05
   81.46371       -3.8309245E-05
   81.59055       -3.6064052E-05
   81.71739       -3.3910990E-05
   81.84424       -3.1821710E-05
   81.97108       -2.9766579E-05
   82.09792       -2.7715161E-05
   82.22476       -2.5636549E-05
   82.35161       -2.3499833E-05
   82.47845       -2.1274411E-05
   82.60529       -1.8930396E-05
   82.73214       -1.6439022E-05
   82.85899       -1.3772909E-05
   82.98582       -1.0906347E-05
   83.11267       -7.8155745E-06
   83.23952       -4.4790495E-06
   83.36636       -8.7751295E-07
   83.49320        3.0057997E-06
   83.62005        7.1850563E-06
   83.74689        1.1671804E-05
   83.87373        1.6474924E-05
   84.00058        2.1600614E-05
   84.12742        2.7052429E-05
   84.25426        3.2831347E-05
   84.38111        3.8935774E-05
   84.50795        4.5361699E-05
   84.63480        5.2102750E-05
   84.76163        5.9150272E-05
   84.88848        6.6493427E-05
   85.01533        7.4119365E-05
   85.14217        8.2013197E-05
   85.26901        9.0158181E-05
   85.39586        9.8535798E-05
   85.52270        1.0712579E-04
   85.64954        1.1590627E-04
   85.77639        1.2485376E-04
   85.90323        1.3394326E-04
   86.03008        1.4314835E-04
   86.15692        1.5244118E-04
   86.28376        1.6179252E-04
   86.41061        1.7117187E-04
   86.53745        1.8054753E-04
   86.66429        1.8988662E-04
   86.79114        1.9915524E-04
   86.91798        2.0831854E-04
   87.04482        2.1734083E-04
   87.17167        2.2618579E-04
   87.29851        2.3481654E-04
   87.42535        2.4319597E-04
   87.55220        2.5128681E-04
   87.67904        2.5905197E-04
   87.80589        2.6645471E-04
   87.93273        2.7345892E-04
   88.05957        2.8002946E-04
   88.18642        2.8613242E-04
   88.31326        2.9173537E-04
   88.44010        2.9680776E-04
   88.56695        3.0132115E-04
   88.69379        3.0524965E-04
   88.82063        3.0857002E-04
   88.94748        3.1126215E-04
   89.07433        3.1330923E-04
   89.20116        3.1469818E-04
   89.32801        3.1541957E-04
   89.45486        3.1546815E-04
   89.58170        3.1484285E-04
   89.70854        3.1354692E-04
   89.83538        3.1158811E-04
   89.96223        3.0897860E-04
   90.08907        3.0573504E-04
   90.21591        3.0187855E-04
   90.34276        2.9743454E-04
   90.46960        2.9243255E-04
   90.59644        2.8690606E-04
   90.72329        2.8089233E-04
   90.85014        2.7443195E-04
   90.97697        2.6756854E-04
   91.10382        2.6034837E-04
   91.23067        2.5282000E-04
   91.35751        2.4503365E-04
   91.48435        2.3704073E-04
   91.61120        2.2889346E-04
   91.73804        2.2064411E-04
   91.86488        2.1234450E-04
   91.99173        2.0404543E-04
   92.11857        1.9579600E-04
   92.24541        1.8764311E-04
   92.37225        1.7963081E-04
   92.49910        1.7179981E-04
   92.62595        1.6418690E-04
   92.75278        1.5682454E-04
   92.87963        1.4974043E-04
   93.00648        1.4295719E-04
   93.13332        1.3649208E-04
   93.26016        1.3035687E-04
   93.38701        1.2455779E-04
   93.51385        1.1909552E-04
   93.64069        1.1396535E-04
   93.76754        1.0915742E-04
   93.89438        1.0465703E-04
   94.02122        1.0044512E-04
   94.14807        9.6498748E-05
   94.27491        9.2791721E-05
   94.40176        8.9295230E-05
   94.52859        8.5978587E-05
   94.65544        8.2809944E-05
   94.78229        7.9757156E-05
   94.90913        7.6788507E-05
   95.03597        7.3873518E-05
   95.16282        7.0983682E-05
   95.28966        6.8093243E-05
   95.41650        6.5179833E-05
   95.54335        6.2225052E-05
   95.67019        5.9215014E-05
   95.79704        5.6140703E-05
   95.92388        5.2998304E-05
   96.05072        4.9789349E-05
   96.17757        4.6520749E-05
   96.30441        4.3204658E-05
   96.43125        3.9858260E-05
   96.55810        3.6503348E-05
   96.68494        3.3165819E-05
   96.81178        2.9875009E-05
   96.93863        2.6662959E-05
   97.06547        2.3563587E-05
   97.19231        2.0611778E-05
   97.31916        1.7842482E-05
   97.44600        1.5289759E-05
   97.57285        1.2985892E-05
   97.69969        1.0960515E-05
   97.82653        9.2398186E-06
   97.95338        7.8458734E-06
   98.08022        6.7960482E-06
   98.20706        6.1025607E-06
   98.33391        5.7721722E-06
   98.46075        5.8060236E-06
   98.58759        6.1996247E-06
   98.71444        6.9429602E-06
   98.84129        8.0207774E-06
   98.96812        9.4129573E-06
   99.09497        1.1095021E-05
   99.22182        1.3038738E-05
   99.34866        1.5212796E-05
   99.47550        1.7583561E-05
   99.60234        2.0115869E-05
   99.72919        2.2773826E-05
   99.85603        2.5521622E-05
   99.98287        2.8324310E-05
   100.1097        3.1148564E-05
   100.2366        3.3963337E-05
   100.3634        3.6740410E-05
   100.4902        3.9454906E-05
   100.6171        4.2085590E-05
   100.7439        4.4615103E-05
   100.8708        4.7030018E-05
   100.9976        4.9320788E-05
   101.1245        5.1481500E-05
   101.2513        5.3509553E-05
   101.3782        5.5405231E-05
   101.5050        5.7171132E-05
   101.6318        5.8811576E-05
   101.7587        6.0331968E-05
   101.8855        6.1738101E-05
   102.0124        6.3035557E-05
   102.1392        6.4229011E-05
   102.2661        6.5321765E-05
   102.3929        6.6315195E-05
   102.5197        6.7208421E-05
   102.6466        6.7998022E-05
   102.7734        6.8677888E-05
   102.9003        6.9239191E-05
   103.0271        6.9670517E-05
   103.1540        6.9958085E-05
   103.2808        7.0086106E-05
   103.4077        7.0037240E-05
   103.5345        6.9793183E-05
   103.6613        6.9335285E-05
   103.7882        6.8645284E-05
   103.9150        6.7706067E-05
   104.0419        6.6502442E-05
   104.1687        6.5021901E-05
   104.2956        6.3255378E-05
   104.4224        6.1197927E-05
   104.5492        5.8849342E-05
   104.6761        5.6214638E-05
   104.8029        5.3304437E-05
   104.9298        5.0135197E-05
   105.0566        4.6729288E-05
   105.1835        4.3114898E-05
   105.3103        3.9325772E-05
   105.4371        3.5400793E-05
   105.5640        3.1383410E-05
   105.6908        2.7320897E-05
   105.8177        2.3263527E-05
   105.9445        1.9263607E-05
   106.0714        1.5374475E-05
   106.1982        1.1649413E-05
   106.3251        8.1405642E-06
   106.4519        4.8978463E-06
   106.5787        1.9679121E-06
   106.7056       -6.0683402E-07
   106.8324       -2.7891281E-06
   106.9593       -4.5476227E-06
   107.0861       -5.8575506E-06
   107.2130       -6.7012224E-06
   107.3398       -7.0683814E-06
   107.4667       -6.9563930E-06
   107.5935       -6.3702537E-06
   107.7203       -5.3224398E-06
   107.8472       -3.8325957E-06
   107.9740       -1.9270528E-06