  -7.200000       -7.1947260E-19
  -7.073156       -7.1946810E-19
  -6.946313       -7.1945957E-19
  -6.819469       -7.1944747E-19
  -6.692626       -7.1943191E-19
  -6.565782       -7.1941345E-19
  -6.438938       -7.1939324E-19
  -6.312095       -7.1937132E-19
  -6.185251       -7.1934981E-19
  -6.058407       -7.1932882E-19
  -5.931563       -7.1930913E-19
  -5.804720       -7.1929170E-19
  -5.677876       -7.1927687E-19
  -5.551033       -7.1926575E-19
  -5.424189       -7.1925789E-19
  -5.297346       -7.1925371E-19
  -5.170502       -7.1925267E-19
  -5.043658       -7.1925520E-19
  -4.916814       -7.1925975E-19
  -4.789971       -7.1926622E-19
  -4.663127       -7.1927314E-19
  -4.536283       -7.1928033E-19
  -4.409440       -7.1928648E-19
  -4.282596       -7.1929093E-19
  -4.155753       -7.1929284E-19
  -4.028909       -7.1929196E-19
  -3.902065       -7.1928736E-19
  -3.775222       -7.1927893E-19
  -3.648378       -7.1926689E-19
  -3.521534       -7.1925128E-19
  -3.394691       -7.1923287E-19
  -3.267847       -7.1921235E-19
  -3.141004       -7.1918960E-19
  -3.014160       -7.1916592E-19
  -2.887316       -7.1914188E-19
  -2.760473       -7.1911836E-19
  -2.633629       -7.1909582E-19
  -2.506785       -7.1907550E-19
  -2.379942       -7.1905782E-19
  -2.253098       -7.1904314E-19
  -2.126254       -7.1903192E-19
  -1.999411       -7.1902416E-19
  -1.872567       -7.1901987E-19
  -1.745723       -7.1901853E-19
  -1.618880       -7.1902044E-19
  -1.492036       -7.1902535E-19
  -1.365193       -7.1903233E-19
  -1.238349       -7.1904045E-19
  -1.111505       -7.1904991E-19
 -0.9846617       -7.1905932E-19
 -0.8578180       -7.1906857E-19
 -0.7309744       -7.1907772E-19
 -0.6041307       -7.1908568E-19
 -0.4772871       -7.1909204E-19
 -0.3504435       -7.1909737E-19
 -0.2235998       -7.1910104E-19
 -9.6756198E-02   -7.1910347E-19
  3.0087441E-02   -7.1910461E-19
  0.1569311       -7.1910507E-19
  0.2837747       -7.1910590E-19
  0.4106184       -7.1910652E-19
  0.5374620       -7.1910874E-19
  0.6643056       -7.1911267E-19
  0.7911493       -7.1911950E-19
  0.9179929       -7.1913004E-19
   1.044837       -7.1914426E-19
   1.171680       -7.1916246E-19
   1.298524       -7.1918484E-19
   1.425367       -7.1921157E-19
   1.552211       -7.1924207E-19
   1.679055       -7.1927614E-19
   1.805898       -7.1931249E-19
   1.932742       -7.1935126E-19
   2.059586       -7.1939040E-19
   2.186429       -7.1942902E-19
   2.313273       -7.1946629E-19
   2.440117       -7.1950129E-19
   2.566960       -7.1953278E-19
   2.693804       -7.1956100E-19
   2.820647       -7.1958473E-19
   2.947491       -7.1960433E-19
   3.074335       -7.1961870E-19
   3.201178       -7.1962857E-19
   3.328022       -7.1963390E-19
   3.454866       -7.1963436E-19
   3.581709       -7.1963105E-19
   3.708553       -7.1962413E-19
   3.835397       -7.1961358E-19
   3.962240       -7.1960076E-19
   4.089084       -7.1958571E-19
   4.215928       -7.1956840E-19
   4.342771       -7.1955046E-19
   4.469615       -7.1953179E-19
   4.596458       -7.1951318E-19
   4.723302       -7.1949509E-19
   4.850146       -7.1947741E-19
   4.976989       -7.1946024E-19
   5.103833       -7.1944375E-19
   5.230677       -7.1942829E-19
   5.357520       -7.1941366E-19
   5.484364       -7.1939970E-19
   5.611207       -7.1938605E-19
   5.738051       -7.1937261E-19
   5.864895       -7.1935927E-19
   5.991738       -7.1934485E-19
   6.118582       -7.1933017E-19
   6.245426       -7.1931502E-19
   6.372270       -7.1929853E-19
   6.499113       -7.1928198E-19
   6.625957       -7.1926425E-19
   6.752800       -7.1924554E-19
   6.879644       -7.1922584E-19
   7.006487       -7.1920547E-19
   7.133331       -7.1918438E-19
   7.260175       -7.1916282E-19
   7.387019       -7.1914064E-19
   7.513862       -7.1911794E-19
   7.640706       -7.1909478E-19
   7.767550       -7.1907198E-19
   7.894393       -7.1904877E-19
   8.021236       -7.1902639E-19
   8.148081       -7.1900359E-19
   8.274924       -7.1898089E-19
   8.401768       -7.1895856E-19
   8.528611       -7.1893689E-19
   8.655455       -7.1891472E-19
   8.782298       -7.1889228E-19
   8.909142       -7.1886995E-19
   9.035986       -7.1884792E-19
   9.162829       -7.1882554E-19
   9.289673       -7.1880362E-19
   9.416516       -7.1878097E-19
   9.543361       -7.1875807E-19
   9.670204       -7.1873548E-19
   9.797048       -7.1871216E-19
   9.923891       -7.1868833E-19
   10.05073       -7.1866413E-19
   10.17758       -7.1863885E-19
   10.30442       -7.1861331E-19
   10.43127       -7.1858710E-19
   10.55811       -7.1856037E-19
   10.68495       -7.1853333E-19
   10.81180       -7.1850619E-19
   10.93864       -7.1847993E-19
   11.06548       -7.1845558E-19
   11.19233       -7.1843376E-19
   11.31917       -7.1841479E-19
   11.44602       -7.1840021E-19
   11.57286       -7.1839111E-19
   11.69970       -7.1838775E-19
   11.82655       -7.1839116E-19
   11.95339       -7.1840150E-19
   12.08023       -7.1841939E-19
   12.20708       -7.1844498E-19
   12.33392       -7.1847807E-19
   12.46076       -7.1851865E-19
   12.58761       -7.1856709E-19
   12.71445       -7.1862138E-19
   12.84130       -7.1868202E-19
   12.96814       -7.1874701E-19
   13.09498       -7.1881556E-19
   13.22183       -7.1888602E-19
   13.34867       -7.1895732E-19
   13.47551       -7.1902763E-19
   13.60236       -7.1909494E-19
   13.72920       -7.1915796E-19
   13.85604       -7.1921534E-19
   13.98289       -7.1926596E-19
   14.10973       -7.1930871E-19
   14.23658       -7.1934294E-19
   14.36342       -7.1936822E-19
   14.49026       -7.1938476E-19
   14.61711       -7.1939236E-19
   14.74395       -7.1939210E-19
   14.87079       -7.1938481E-19
   14.99764       -7.1937127E-19
   15.12448       -7.1935328E-19
   15.25132       -7.1933146E-19
   15.37817       -7.1930690E-19
   15.50501       -7.1928126E-19
   15.63186       -7.1925510E-19
   15.75870       -7.1922992E-19
   15.88554       -7.1920557E-19
   16.01239       -7.1918267E-19
   16.13923       -7.1916153E-19
   16.26607       -7.1914245E-19
   16.39292       -7.1912487E-19
   16.51976       -7.1910885E-19
   16.64660       -7.1909416E-19
   16.77345       -7.1908103E-19
   16.90029       -7.1906950E-19
   17.02714       -7.1905947E-19
   17.15398       -7.1905110E-19
   17.28082       -7.1904515E-19
   17.40767       -7.1904148E-19
   17.53451       -7.1904127E-19
   17.66135       -7.1904474E-19
   17.78820       -7.1905255E-19
   17.91504       -7.1906599E-19
   18.04188       -7.1908418E-19
   18.16873       -7.1910709E-19
   18.29557       -7.1913490E-19
   18.42241       -7.1916644E-19
   18.54926       -7.1920077E-19
   18.67610       -7.1923711E-19
   18.80295       -7.1927413E-19
   18.92979       -7.1930928E-19
   19.05663       -7.1934221E-19
   19.18348       -7.1937085E-19
   19.31032       -7.1939391E-19
   19.43716       -7.1941118E-19
   19.56401       -7.1942188E-19
   19.69085       -7.1942602E-19
   19.81770       -7.1942395E-19
   19.94454       -7.1941661E-19
   20.07138       -7.1940384E-19
   20.19823       -7.1938719E-19
   20.32507       -7.1936817E-19
   20.45191       -7.1934723E-19
   20.57876       -7.1932562E-19
   20.70560       -7.1930323E-19
   20.83245       -7.1928173E-19
   20.95929       -7.1926048E-19
   21.08613       -7.1924026E-19
   21.21297       -7.1922150E-19
   21.33982       -7.1920273E-19
   21.46666       -7.1918474E-19
   21.59351       -7.1916659E-19
   21.72035       -7.1914736E-19
   21.84719       -7.1912761E-19
   21.97404       -7.1910590E-19
   22.10088       -7.1908217E-19
   22.22772       -7.1905637E-19
   22.35457       -7.1902825E-19
   22.48141       -7.1899692E-19
   22.60826       -7.1896280E-19
   22.73510       -7.1892573E-19
   22.86194       -7.1888556E-19
   22.98879       -7.1884285E-19
   23.11563       -7.1879777E-19
   23.24247       -7.1875109E-19
   23.36932       -7.1870368E-19
   23.49616       -7.1865617E-19
   23.62300       -7.1860954E-19
   23.74985       -7.1856456E-19
   23.87669       -7.1852186E-19
   24.00353       -7.1848184E-19
   24.13038       -7.1844581E-19
   24.25722       -7.1841355E-19
   24.38407       -7.1838522E-19
   24.51091       -7.1836092E-19
   24.63775       -7.1834034E-19
   24.76460       -7.1832256E-19
   24.89144       -7.1830679E-19
   25.01828       -7.1829257E-19
   25.14513       -7.1827856E-19
   25.27197       -7.1826383E-19
   25.39882       -7.1824687E-19
   25.52566       -7.1822702E-19
   25.65250       -7.1820298E-19
   25.77935       -7.1817506E-19
   25.90619       -7.1814358E-19
   26.03303       -7.1810759E-19
   26.15988       -7.1806867E-19
   26.28672       -7.1802731E-19
   26.41356       -7.1798388E-19
   26.54041       -7.1794014E-19
   26.66725       -7.1789713E-19
   26.79410       -7.1785546E-19
   26.92094       -7.1781612E-19
   27.04778       -7.1777941E-19
   27.17463       -7.1774555E-19
   27.30147       -7.1771551E-19
   27.42831       -7.1768837E-19
   27.55516       -7.1766361E-19
   27.68200       -7.1764127E-19
   27.80884       -7.1762049E-19
   27.93569       -7.1760074E-19
   28.06253       -7.1758156E-19
   28.18937       -7.1756207E-19
   28.31622       -7.1754258E-19
   28.44306       -7.1752180E-19
   28.56991       -7.1749941E-19
   28.69675       -7.1747615E-19
   28.82359       -7.1745154E-19
   28.95044       -7.1742522E-19
   29.07728       -7.1739674E-19
   29.20412       -7.1736639E-19
   29.33097       -7.1733434E-19
   29.45781       -7.1729965E-19
   29.58466       -7.1726289E-19
   29.71150       -7.1722349E-19
   29.83834       -7.1718198E-19
   29.96519       -7.1713871E-19
   30.09203       -7.1709456E-19
   30.21887       -7.1704896E-19
   30.34572       -7.1700279E-19
   30.47256       -7.1695683E-19
   30.59941       -7.1691108E-19
   30.72625       -7.1686610E-19
   30.85309       -7.1682210E-19
   30.97993       -7.1677950E-19
   31.10678       -7.1673830E-19
   31.23362       -7.1669818E-19
   31.36047       -7.1665879E-19
   31.48731       -7.1661950E-19
   31.61415       -7.1657964E-19
   31.74100       -7.1653931E-19
   31.86784       -7.1649759E-19
   31.99468       -7.1645354E-19
   32.12153       -7.1640758E-19
   32.24837       -7.1635883E-19
   32.37521       -7.1630687E-19
   32.50206       -7.1625311E-19
   32.62890       -7.1619665E-19
   32.75574       -7.1613849E-19
   32.88259       -7.1607930E-19
   33.00943       -7.1602057E-19
   33.13628       -7.1596282E-19
   33.26312       -7.1590838E-19
   33.38997       -7.1585813E-19
   33.51681       -7.1581201E-19
   33.64365       -7.1577200E-19
   33.77050       -7.1573814E-19
   33.89734       -7.1571089E-19
   34.02418       -7.1568975E-19
   34.15103       -7.1567346E-19
   34.27787       -7.1566126E-19
   34.40471       -7.1565128E-19
   34.53156       -7.1564218E-19
   34.65840       -7.1563210E-19
   34.78524       -7.1561985E-19
   34.91209       -7.1560315E-19
   35.03893       -7.1558102E-19
   35.16578       -7.1555300E-19
   35.29262       -7.1551961E-19
   35.41946       -7.1547980E-19
   35.54631       -7.1543575E-19
   35.67315       -7.1538772E-19
   35.80000       -7.1533638E-19
   35.92684       -7.1528494E-19
   36.05368       -7.1523423E-19
   36.18052       -7.1518568E-19
   36.30737       -7.1514200E-19
   36.43421       -7.1510395E-19
   36.56105       -7.1507174E-19
   36.68790       -7.1504718E-19
   36.81474       -7.1502935E-19
   36.94159       -7.1501849E-19
   37.06843       -7.1501378E-19
   37.19527       -7.1501404E-19
   37.32212       -7.1501792E-19
   37.44896       -7.1502387E-19
   37.57581       -7.1503084E-19
   37.70265       -7.1503751E-19
   37.82949       -7.1504243E-19
   37.95634       -7.1504522E-19
   38.08318       -7.1504542E-19
   38.21002       -7.1504315E-19
   38.33687       -7.1503751E-19
   38.46371       -7.1502991E-19
   38.59055       -7.1502066E-19
   38.71740       -7.1500996E-19
   38.84424       -7.1499895E-19
   38.97108       -7.1498726E-19
   39.09793       -7.1497594E-19
   39.22477       -7.1496529E-19
   39.35162       -7.1495418E-19
   39.47846       -7.1494384E-19
   39.60530       -7.1493313E-19
   39.73215       -7.1492166E-19
   39.85899       -7.1490940E-19
   39.98583       -7.1489653E-19
   40.11268       -7.1488288E-19
   40.23952       -7.1486758E-19
   40.36636       -7.1485155E-19
   40.49321       -7.1483444E-19
   40.62005       -7.1481754E-19
   40.74689       -7.1480032E-19
   40.87374       -7.1478372E-19
   41.00058       -7.1476796E-19
   41.12743       -7.1475338E-19
   41.25427       -7.1474014E-19
   41.38111       -7.1472789E-19
   41.50796       -7.1471672E-19
   41.63480       -7.1470654E-19
   41.76165       -7.1469630E-19
   41.88849       -7.1468638E-19
   42.01533       -7.1467645E-19
   42.14218       -7.1466564E-19
   42.26902       -7.1465401E-19
   42.39586       -7.1464176E-19
   42.52271       -7.1462878E-19
   42.64955       -7.1461482E-19
   42.77639       -7.1460123E-19
   42.90324       -7.1458711E-19
   43.03008       -7.1457336E-19
   43.15693       -7.1456049E-19
   43.28377       -7.1454891E-19
   43.41061       -7.1453872E-19
   43.53746       -7.1453035E-19
   43.66430       -7.1452352E-19
   43.79114       -7.1451934E-19
   43.91799       -7.1451815E-19
   44.04483       -7.1451861E-19
   44.17167       -7.1452203E-19
   44.29852       -7.1452725E-19
   44.42536       -7.1453438E-19
   44.55220       -7.1454250E-19
   44.67905       -7.1455108E-19
   44.80589       -7.1456008E-19
   44.93274       -7.1456783E-19
   45.05958       -7.1457476E-19
   45.18642       -7.1457910E-19
   45.31327       -7.1458091E-19
   45.44011       -7.1457951E-19
   45.56696       -7.1457419E-19
   45.69380       -7.1456447E-19
   45.82064       -7.1455036E-19
   45.94748       -7.1453180E-19
   46.07433       -7.1450957E-19
   46.20117       -7.1448392E-19
   46.32801       -7.1445544E-19
   46.45486       -7.1442550E-19
   46.58170       -7.1439552E-19
   46.70855       -7.1436688E-19
   46.83539       -7.1434077E-19
   46.96223       -7.1431838E-19
   47.08908       -7.1430117E-19
   47.21592       -7.1428985E-19
   47.34277       -7.1428483E-19
   47.46961       -7.1428654E-19
   47.59645       -7.1429378E-19
   47.72330       -7.1430551E-19
   47.85014       -7.1432071E-19
   47.97698       -7.1433762E-19
   48.10383       -7.1435483E-19
   48.23067       -7.1437065E-19
   48.35751       -7.1438394E-19
   48.48436       -7.1439366E-19
   48.61120       -7.1439857E-19
   48.73804       -7.1439810E-19
   48.86489       -7.1439288E-19
   48.99173       -7.1438296E-19
   49.11858       -7.1436946E-19
   49.24542       -7.1435328E-19
   49.37226       -7.1433498E-19
   49.49911       -7.1431709E-19
   49.62595       -7.1429998E-19
   49.75279       -7.1428545E-19
   49.87964       -7.1427439E-19
   50.00648       -7.1426818E-19
   50.13332       -7.1426674E-19
   50.26017       -7.1427036E-19
   50.38701       -7.1427889E-19
   50.51385       -7.1429253E-19
   50.64070       -7.1431104E-19
   50.76754       -7.1433250E-19
   50.89439       -7.1435674E-19
   51.02123       -7.1438265E-19
   51.14808       -7.1440927E-19
   51.27492       -7.1443533E-19
   51.40176       -7.1446014E-19
   51.52861       -7.1448315E-19
   51.65545       -7.1450290E-19
   51.78229       -7.1451872E-19
   51.90914       -7.1453066E-19
   52.03598       -7.1453872E-19
   52.16282       -7.1454172E-19
   52.28967       -7.1454090E-19
   52.41651       -7.1453604E-19
   52.54335       -7.1452704E-19
   52.67020       -7.1451489E-19
   52.79704       -7.1450016E-19
   52.92389       -7.1448423E-19
   53.05073       -7.1446774E-19
   53.17757       -7.1445182E-19
   53.30442       -7.1443693E-19
   53.43126       -7.1442354E-19
   53.55810       -7.1441320E-19
   53.68495       -7.1440565E-19
   53.81179       -7.1440084E-19
   53.93863       -7.1439909E-19
   54.06548       -7.1439950E-19
   54.19232       -7.1440126E-19
   54.31916       -7.1440348E-19
   54.44601       -7.1440565E-19
   54.57285       -7.1440653E-19
   54.69970       -7.1440596E-19
   54.82654       -7.1440255E-19
   54.95338       -7.1439588E-19
   55.08023       -7.1438580E-19
   55.20707       -7.1437272E-19
   55.33392       -7.1435664E-19
   55.46076       -7.1433813E-19
   55.58760       -7.1431797E-19
   55.71444       -7.1429786E-19
   55.84129       -7.1427801E-19
   55.96813       -7.1425929E-19
   56.09497       -7.1424275E-19
   56.22182       -7.1422910E-19
   56.34866       -7.1421892E-19
   56.47551       -7.1421245E-19
   56.60235       -7.1421002E-19
   56.72919       -7.1421126E-19
   56.85604       -7.1421535E-19
   56.98288       -7.1422222E-19
   57.10973       -7.1423096E-19
   57.23657       -7.1424068E-19
   57.36341       -7.1425081E-19
   57.49026       -7.1426095E-19
   57.61710       -7.1427087E-19
   57.74394       -7.1428007E-19
   57.87079       -7.1428824E-19
   57.99763       -7.1429558E-19
   58.12447       -7.1430220E-19
   58.25132       -7.1430768E-19
   58.37816       -7.1431249E-19
   58.50500       -7.1431663E-19
   58.63185       -7.1432004E-19
   58.75869       -7.1432231E-19
   58.88554       -7.1432340E-19
   59.01238       -7.1432304E-19
   59.13923       -7.1432050E-19
   59.26607       -7.1431513E-19
   59.39291       -7.1430665E-19
   59.51975       -7.1429517E-19
   59.64660       -7.1428039E-19
   59.77344       -7.1426338E-19
   59.90028       -7.1424378E-19
   60.02713       -7.1422305E-19
   60.15397       -7.1420222E-19
   60.28082       -7.1418195E-19
   60.40766       -7.1416375E-19
   60.53450       -7.1414860E-19
   60.66135       -7.1413697E-19
   60.78819       -7.1412942E-19
   60.91504       -7.1412617E-19
   61.04188       -7.1412751E-19
   61.16872       -7.1413211E-19
   61.29557       -7.1413992E-19
   61.42241       -7.1414964E-19
   61.54925       -7.1416019E-19
   61.67610       -7.1417099E-19
   61.80294       -7.1418102E-19
   61.92978       -7.1418862E-19
   62.05663       -7.1419420E-19
   62.18347       -7.1419674E-19
   62.31031       -7.1419653E-19
   62.43716       -7.1419389E-19
   62.56400       -7.1418883E-19
   62.69085       -7.1418159E-19
   62.81769       -7.1417259E-19
   62.94453       -7.1416282E-19
   63.07138       -7.1415259E-19
   63.19822       -7.1414214E-19
   63.32506       -7.1413237E-19
   63.45191       -7.1412462E-19
   63.57875       -7.1411769E-19
   63.70559       -7.1411247E-19
   63.83244       -7.1410916E-19
   63.95928       -7.1410792E-19
   64.08613       -7.1410843E-19
   64.21297       -7.1411035E-19
   64.33981       -7.1411428E-19
   64.46666       -7.1411945E-19
   64.59350       -7.1412658E-19
   64.72034       -7.1413511E-19
   64.84719       -7.1414555E-19
   64.97403       -7.1415812E-19
   65.10088       -7.1417254E-19
   65.22771       -7.1418800E-19
   65.35456       -7.1420516E-19
   65.48141       -7.1422383E-19
   65.60825       -7.1424285E-19
   65.73509       -7.1426198E-19
   65.86194       -7.1428095E-19
   65.98878       -7.1429905E-19
   66.11562       -7.1431575E-19
   66.24247       -7.1433152E-19
   66.36931       -7.1434625E-19
   66.49615       -7.1436057E-19
   66.62300       -7.1437587E-19
   66.74984       -7.1439278E-19
   66.87669       -7.1441320E-19
   67.00353       -7.1443786E-19
   67.13037       -7.1446903E-19
   67.25722       -7.1450688E-19
   67.38406       -7.1455268E-19
   67.51090       -7.1460666E-19
   67.63775       -7.1466921E-19
   67.76459       -7.1473963E-19
   67.89143       -7.1481681E-19
   68.01828       -7.1490000E-19
   68.14512       -7.1498737E-19
   68.27197       -7.1507706E-19
   68.39881       -7.1516847E-19
   68.52565       -7.1525992E-19
   68.65250       -7.1535065E-19
   68.77934       -7.1543973E-19
   68.90618       -7.1552757E-19
   69.03303       -7.1561375E-19
   69.15987       -7.1569926E-19
   69.28671       -7.1578348E-19
   69.41356       -7.1586899E-19
   69.54041       -7.1595620E-19
   69.66724       -7.1604585E-19
   69.79409       -7.1613927E-19
   69.92093       -7.1623677E-19
   70.04778       -7.1633919E-19
   70.17462       -7.1644713E-19
   70.30146       -7.1656072E-19
   70.42831       -7.1668050E-19
   70.55515       -7.1680592E-19
   70.68199       -7.1693615E-19
   70.80884       -7.1707186E-19
   70.93568       -7.1721207E-19
   71.06252       -7.1735615E-19
   71.18937       -7.1750453E-19
   71.31622       -7.1765688E-19
   71.44305       -7.1781307E-19
   71.56990       -7.1797209E-19
   71.69675       -7.1813396E-19
   71.82359       -7.1829919E-19
   71.95043       -7.1846680E-19
   72.07728       -7.1863647E-19
   72.20412       -7.1880739E-19
   72.33096       -7.1897903E-19
   72.45780       -7.1915093E-19
   72.58465       -7.1932169E-19
   72.71149       -7.1949074E-19
   72.83833       -7.1965783E-19
   72.96518       -7.1982187E-19
   73.09203       -7.1998312E-19
   73.21886       -7.2014137E-19
   73.34571       -7.2029740E-19
   73.47256       -7.2045193E-19
   73.59940       -7.2060553E-19
   73.72624       -7.2076026E-19
   73.85309       -7.2091748E-19
   73.97993       -7.2107841E-19
   74.10677       -7.2124411E-19
   74.23362       -7.2141554E-19
   74.36046       -7.2159308E-19
   74.48730       -7.2177686E-19
   74.61415       -7.2196670E-19
   74.74099       -7.2216243E-19
   74.86784       -7.2236209E-19
   74.99467       -7.2256450E-19
   75.12152       -7.2276829E-19
   75.24837       -7.2297214E-19
   75.37521       -7.2317449E-19
   75.50205       -7.2337410E-19
   75.62890       -7.2356973E-19
   75.75574       -7.2376086E-19
   75.88258       -7.2394785E-19
   76.00943       -7.2413025E-19
   76.13627       -7.2430876E-19
   76.26311       -7.2448438E-19
   76.38996       -7.2465830E-19
   76.51680       -7.2483154E-19
   76.64365       -7.2500499E-19
   76.77049       -7.2518045E-19
   76.89733       -7.2535928E-19
   77.02418       -7.2554178E-19
   77.15102       -7.2572836E-19
   77.27786       -7.2592032E-19
   77.40471       -7.2611749E-19
   77.53155       -7.2632046E-19
   77.65839       -7.2652876E-19
   77.78524       -7.2674274E-19
   77.91208       -7.2696225E-19
   78.03893       -7.2718657E-19
   78.16577       -7.2741519E-19
   78.29261       -7.2764866E-19
   78.41946       -7.2788611E-19
   78.54630       -7.2812775E-19
   78.67314       -7.2837187E-19
   78.79999       -7.2861889E-19
   78.92683       -7.2886782E-19
   79.05367       -7.2911727E-19
   79.18052       -7.2936682E-19
   79.30737       -7.2961456E-19
   79.43420       -7.2986007E-19
   79.56105       -7.3010068E-19
   79.68790       -7.3033617E-19
   79.81474       -7.3056468E-19
   79.94158       -7.3078569E-19
   80.06842       -7.3099833E-19
   80.19527       -7.3120321E-19
   80.32211       -7.3140070E-19
   80.44895       -7.3159085E-19
   80.57580       -7.3177567E-19
   80.70264       -7.3195729E-19
   80.82948       -7.3213678E-19
   80.95633       -7.3231701E-19
   81.08318       -7.3249883E-19
   81.21001       -7.3268474E-19
   81.33686       -7.3287556E-19
   81.46371       -7.3307305E-19
   81.59055       -7.3327752E-19
   81.71739       -7.3348860E-19
   81.84424       -7.3370615E-19
   81.97108       -7.3392908E-19
   82.09792       -7.3415640E-19
   82.22476       -7.3438744E-19
   82.35161       -7.3461972E-19
   82.47845       -7.3485257E-19
   82.60529       -7.3508491E-19
   82.73214       -7.3531667E-19
   82.85899       -7.3554596E-19
   82.98582       -7.3577317E-19
   83.11267       -7.3599879E-19
   83.23952       -7.3622306E-19
   83.36636       -7.3644624E-19
   83.49320       -7.3666958E-19
   83.62005       -7.3689349E-19
   83.74689       -7.3711957E-19
   83.87373       -7.3734859E-19
   84.00058       -7.3758082E-19
   84.12742       -7.3781616E-19
   84.25426       -7.3805588E-19
   84.38111       -7.3829850E-19
   84.50795       -7.3854469E-19
   84.63480       -7.3879424E-19
   84.76163       -7.3904597E-19
   84.88848       -7.3929960E-19
   85.01533       -7.3955416E-19
   85.14217       -7.3980837E-19
   85.26901       -7.4006174E-19
   85.39586       -7.4031336E-19
   85.52270       -7.4056255E-19
   85.64954       -7.4080848E-19
   85.77639       -7.4105095E-19
   85.90323       -7.4128907E-19
   86.03008       -7.4152275E-19
   86.15692       -7.4175095E-19
   86.28376       -7.4197305E-19
   86.41061       -7.4218961E-19
   86.53745       -7.4239946E-19
   86.66429       -7.4260217E-19
   86.79114       -7.4279718E-19
   86.91798       -7.4298345E-19
   87.04482       -7.4316062E-19
   87.17167       -7.4332792E-19
   87.29851       -7.4348410E-19
   87.42535       -7.4362824E-19
   87.55220       -7.4376002E-19
   87.67904       -7.4387851E-19
   87.80589       -7.4398336E-19
   87.93273       -7.4407372E-19
   88.05957       -7.4415024E-19
   88.18642       -7.4421140E-19
   88.31326       -7.4425684E-19
   88.44010       -7.4428647E-19
   88.56695       -7.4430001E-19
   88.69379       -7.4429582E-19
   88.82063       -7.4427406E-19
   88.94748       -7.4423306E-19
   89.07433       -7.4417169E-19
   89.20116       -7.4408949E-19
   89.32801       -7.4398496E-19
   89.45486       -7.4385685E-19
   89.58170       -7.4370403E-19
   89.70854       -7.4352556E-19
   89.83538       -7.4332073E-19
   89.96223       -7.4309010E-19
   90.08907       -7.4283270E-19
   90.21591       -7.4254913E-19
   90.34276       -7.4224033E-19
   90.46960       -7.4190734E-19
   90.59644       -7.4155005E-19
   90.72329       -7.4117027E-19
   90.85014       -7.4076903E-19
   90.97697       -7.4034717E-19
   91.10382       -7.3990525E-19
   91.23067       -7.3944301E-19
   91.35751       -7.3896165E-19
   91.48435       -7.3846125E-19
   91.61120       -7.3794163E-19
   91.73804       -7.3740272E-19
   91.86488       -7.3684448E-19
   91.99173       -7.3626633E-19
   92.11857       -7.3566771E-19
   92.24541       -7.3504918E-19
   92.37225       -7.3441045E-19
   92.49910       -7.3375092E-19
   92.62595       -7.3307103E-19
   92.75278       -7.3237051E-19
   92.87963       -7.3164983E-19
   93.00648       -7.3090915E-19
   93.13332       -7.3014798E-19
   93.26016       -7.2936697E-19
   93.38701       -7.2856693E-19
   93.51385       -7.2774828E-19
   93.64069       -7.2691133E-19
   93.76754       -7.2605737E-19
   93.89438       -7.2518780E-19
   94.02122       -7.2430323E-19
   94.14807       -7.2340548E-19
   94.27491       -7.2249543E-19
   94.40176       -7.2157483E-19
   94.52859       -7.2064420E-19
   94.65544       -7.1970493E-19
   94.78229       -7.1875802E-19
   94.90913       -7.1780505E-19
   95.03597       -7.1684604E-19
   95.16282       -7.1588238E-19
   95.28966       -7.1491401E-19
   95.41650       -7.1394248E-19
   95.54335       -7.1296780E-19
   95.67019       -7.1198966E-19
   95.79704       -7.1100982E-19
   95.92388       -7.1002816E-19
   96.05072       -7.0904593E-19
   96.17757       -7.0806361E-19
   96.30441       -7.0708205E-19
   96.43125       -7.0610153E-19
   96.55810       -7.0512396E-19
   96.68494       -7.0414939E-19
   96.81178       -7.0317931E-19
   96.93863       -7.0221285E-19
   97.06547       -7.0125126E-19
   97.19231       -7.0029379E-19
   97.31916       -6.9934042E-19
   97.44600       -6.9838849E-19
   97.57285       -6.9743842E-19
   97.69969       -6.9648721E-19
   97.82653       -6.9553353E-19
   97.95338       -6.9457529E-19
   98.08022       -6.9361069E-19
   98.20706       -6.9263819E-19
   98.33391       -6.9165586E-19
   98.46075       -6.9066262E-19
   98.58759       -6.8965723E-19
   98.71444       -6.8863954E-19
   98.84129       -6.8760898E-19
   98.96812       -6.8656565E-19
   99.09497       -6.8550929E-19
   99.22182       -6.8444124E-19
   99.34866       -6.8336167E-19
   99.47550       -6.8227072E-19
   99.60234       -6.8116969E-19
   99.72919       -6.8005848E-19
   99.85603       -6.7893744E-19
   99.98287       -6.7780746E-19
   100.1097       -6.7666781E-19
   100.2366       -6.7551953E-19
   100.3634       -6.7436168E-19
   100.4902       -6.7319510E-19
   100.6171       -6.7201983E-19
   100.7439       -6.7083541E-19
   100.8708       -6.6964220E-19
   100.9976       -6.6844016E-19
   101.1245       -6.6722854E-19
   101.2513       -6.6600824E-19
   101.3782       -6.6477838E-19
   101.5050       -6.6353994E-19
   101.6318       -6.6229301E-19
   101.7587       -6.6103720E-19
   101.8855       -6.5977244E-19
   102.0124       -6.5849962E-19
   102.1392       -6.5721842E-19
   102.2661       -6.5593101E-19
   102.3929       -6.5463761E-19
   102.5197       -6.5333961E-19
   102.6466       -6.5203784E-19
   102.7734       -6.5073415E-19
   102.9003       -6.4943015E-19
   103.0271       -6.4812749E-19
   103.1540       -6.4682727E-19
   103.2808       -6.4553072E-19
   103.4077       -6.4423959E-19
   103.5345       -6.4295358E-19
   103.6613       -6.4167393E-19
   103.7882       -6.4040028E-19
   103.9150       -6.3913222E-19
   104.0419       -6.3787004E-19
   104.1687       -6.3661314E-19
   104.2956       -6.3536058E-19
   104.4224       -6.3411242E-19
   104.5492       -6.3286813E-19
   104.6761       -6.3162700E-19
   104.8029       -6.3038959E-19
   104.9298       -6.2915549E-19
   105.0566       -6.2792635E-19
   105.1835       -6.2670197E-19
   105.3103       -6.2548353E-19
   105.4371       -6.2427274E-19
   105.5640       -6.2307090E-19
   105.6908       -6.2187971E-19
   105.8177       -6.2070072E-19
   105.9445       -6.1953532E-19
   106.0714       -6.1838420E-19
   106.1982       -6.1724796E-19
   106.3251       -6.1612708E-19
   106.4519       -6.1502187E-19
   106.5787       -6.1393231E-19
   106.7056       -6.1285646E-19
   106.8324       -6.1179343E-19
   106.9593       -6.1074110E-19
   107.0861       -6.0969772E-19
   107.2130       -6.0866105E-19
   107.3398       -6.0762852E-19
   107.4667       -6.0659884E-19
   107.5935       -6.0556947E-19
   107.7203       -6.0453890E-19
   107.8472       -6.0350586E-19
   107.9740       -6.0246971E-19