  -7.200000        4.8965759E-18
  -7.073156        4.8965734E-18
  -6.946313        4.8965676E-18
  -6.819469        4.8965585E-18
  -6.692626        4.8965457E-18
  -6.565782        4.8965308E-18
  -6.438938        4.8965138E-18
  -6.312095        4.8964969E-18
  -6.185251        4.8964807E-18
  -6.058407        4.8964659E-18
  -5.931563        4.8964530E-18
  -5.804720        4.8964415E-18
  -5.677876        4.8964311E-18
  -5.551033        4.8964204E-18
  -5.424189        4.8964092E-18
  -5.297346        4.8963964E-18
  -5.170502        4.8963815E-18
  -5.043658        4.8963649E-18
  -4.916814        4.8963488E-18
  -4.789971        4.8963343E-18
  -4.663127        4.8963240E-18
  -4.536283        4.8963215E-18
  -4.409440        4.8963298E-18
  -4.282596        4.8963505E-18
  -4.155753        4.8963844E-18
  -4.028909        4.8964315E-18
  -3.902065        4.8964898E-18
  -3.775222        4.8965560E-18
  -3.648378        4.8966263E-18
  -3.521534        4.8966954E-18
  -3.394691        4.8967599E-18
  -3.267847        4.8968166E-18
  -3.141004        4.8968621E-18
  -3.014160        4.8968943E-18
  -2.887316        4.8969117E-18
  -2.760473        4.8969113E-18
  -2.633629        4.8968910E-18
  -2.506785        4.8968476E-18
  -2.379942        4.8967769E-18
  -2.253098        4.8966747E-18
  -2.126254        4.8965353E-18
  -1.999411        4.8963538E-18
  -1.872567        4.8961259E-18
  -1.745723        4.8958467E-18
  -1.618880        4.8955117E-18
  -1.492036        4.8951180E-18
  -1.365193        4.8946630E-18
  -1.238349        4.8941456E-18
  -1.111505        4.8935658E-18
 -0.9846617        4.8929255E-18
 -0.8578180        4.8922261E-18
 -0.7309744        4.8914713E-18
 -0.6041307        4.8906657E-18
 -0.4772871        4.8898124E-18
 -0.3504435        4.8889182E-18
 -0.2235998        4.8879889E-18
 -9.6756198E-02    4.8870310E-18
  3.0087441E-02    4.8860537E-18
  0.1569311        4.8850648E-18
  0.2837747        4.8840743E-18
  0.4106184        4.8830912E-18
  0.5374620        4.8821250E-18
  0.6643056        4.8811854E-18
  0.7911493        4.8802800E-18
  0.9179929        4.8794160E-18
   1.044837        4.8786008E-18
   1.171680        4.8778402E-18
   1.298524        4.8771409E-18
   1.425367        4.8765076E-18
   1.552211        4.8759431E-18
   1.679055        4.8754497E-18
   1.805898        4.8750274E-18
   1.932742        4.8746746E-18
   2.059586        4.8743872E-18
   2.186429        4.8741589E-18
   2.313273        4.8739831E-18
   2.440117        4.8738516E-18
   2.566960        4.8737544E-18
   2.693804        4.8736820E-18
   2.820647        4.8736249E-18
   2.947491        4.8735740E-18
   3.074335        4.8735207E-18
   3.201178        4.8734603E-18
   3.328022        4.8733879E-18
   3.454866        4.8733019E-18
   3.581709        4.8732018E-18
   3.708553        4.8730893E-18
   3.835397        4.8729657E-18
   3.962240        4.8728317E-18
   4.089084        4.8726877E-18
   4.215928        4.8725339E-18
   4.342771        4.8723693E-18
   4.469615        4.8721927E-18
   4.596458        4.8720028E-18
   4.723302        4.8717989E-18
   4.850146        4.8715818E-18
   4.976989        4.8713535E-18
   5.103833        4.8711161E-18
   5.230677        4.8708754E-18
   5.357520        4.8706371E-18
   5.484364        4.8704076E-18
   5.611207        4.8701946E-18
   5.738051        4.8700027E-18
   5.864895        4.8698344E-18
   5.991738        4.8696900E-18
   6.118582        4.8695655E-18
   6.245426        4.8694539E-18
   6.372270        4.8693443E-18
   6.499113        4.8692276E-18
   6.625957        4.8690920E-18
   6.752800        4.8689290E-18
   6.879644        4.8687330E-18
   7.006487        4.8684997E-18
   7.133331        4.8682300E-18
   7.260175        4.8679252E-18
   7.387019        4.8675915E-18
   7.513862        4.8672329E-18
   7.640706        4.8668549E-18
   7.767550        4.8664611E-18
   7.894393        4.8660533E-18
   8.021236        4.8656331E-18
   8.148081        4.8651984E-18
   8.274924        4.8647484E-18
   8.401768        4.8642811E-18
   8.528611        4.8637972E-18
   8.655455        4.8633001E-18
   8.782298        4.8627955E-18
   8.909142        4.8622917E-18
   9.035986        4.8617975E-18
   9.162829        4.8613218E-18
   9.289673        4.8608719E-18
   9.416516        4.8604508E-18
   9.543361        4.8600579E-18
   9.670204        4.8596878E-18
   9.797048        4.8593296E-18
   9.923891        4.8589722E-18
   10.05073        4.8586029E-18
   10.17758        4.8582100E-18
   10.30442        4.8577848E-18
   10.43127        4.8573233E-18
   10.55811        4.8568249E-18
   10.68495        4.8562934E-18
   10.81180        4.8557388E-18
   10.93864        4.8551718E-18
   11.06548        4.8546051E-18
   11.19233        4.8540505E-18
   11.31917        4.8535174E-18
   11.44602        4.8530116E-18
   11.57286        4.8525355E-18
   11.69970        4.8520876E-18
   11.82655        4.8516620E-18
   11.95339        4.8512534E-18
   12.08023        4.8508543E-18
   12.20708        4.8504597E-18
   12.33392        4.8500656E-18
   12.46076        4.8496706E-18
   12.58761        4.8492756E-18
   12.71445        4.8488827E-18
   12.84130        4.8484943E-18
   12.96814        4.8481118E-18
   13.09498        4.8477371E-18
   13.22183        4.8473686E-18
   13.34867        4.8470042E-18
   13.47551        4.8466390E-18
   13.60236        4.8462672E-18
   13.72920        4.8458809E-18
   13.85604        4.8454731E-18
   13.98289        4.8450376E-18
   14.10973        4.8445681E-18
   14.23658        4.8440627E-18
   14.36342        4.8435222E-18
   14.49026        4.8429489E-18
   14.61711        4.8423500E-18
   14.74395        4.8417334E-18
   14.87079        4.8411084E-18
   14.99764        4.8404843E-18
   15.12448        4.8398693E-18
   15.25132        4.8392713E-18
   15.37817        4.8386947E-18
   15.50501        4.8381422E-18
   15.63186        4.8376149E-18
   15.75870        4.8371115E-18
   15.88554        4.8366293E-18
   16.01239        4.8361652E-18
   16.13923        4.8357152E-18
   16.26607        4.8352772E-18
   16.39292        4.8348471E-18
   16.51976        4.8344252E-18
   16.64660        4.8340108E-18
   16.77345        4.8336047E-18
   16.90029        4.8332060E-18
   17.02714        4.8328156E-18
   17.15398        4.8324305E-18
   17.28082        4.8320488E-18
   17.40767        4.8316654E-18
   17.53451        4.8312762E-18
   17.66135        4.8308762E-18
   17.78820        4.8304614E-18
   17.91504        4.8300296E-18
   18.04188        4.8295792E-18
   18.16873        4.8291114E-18
   18.29557        4.8286288E-18
   18.42241        4.8281345E-18
   18.54926        4.8276329E-18
   18.67610        4.8271291E-18
   18.80295        4.8266262E-18
   18.92979        4.8261282E-18
   19.05663        4.8256377E-18
   19.18348        4.8251554E-18
   19.31032        4.8246815E-18
   19.43716        4.8242149E-18
   19.56401        4.8237550E-18
   19.69085        4.8232988E-18
   19.81770        4.8228455E-18
   19.94454        4.8223951E-18
   20.07138        4.8219476E-18
   20.19823        4.8215039E-18
   20.32507        4.8210650E-18
   20.45191        4.8206312E-18
   20.57876        4.8202035E-18
   20.70560        4.8197829E-18
   20.83245        4.8193701E-18
   20.95929        4.8189652E-18
   21.08613        4.8185678E-18
   21.21297        4.8181782E-18
   21.33982        4.8177944E-18
   21.46666        4.8174130E-18
   21.59351        4.8170296E-18
   21.72035        4.8166396E-18
   21.84719        4.8162364E-18
   21.97404        4.8158145E-18
   22.10088        4.8153703E-18
   22.22772        4.8149025E-18
   22.35457        4.8144120E-18
   22.48141        4.8139029E-18
   22.60826        4.8133789E-18
   22.73510        4.8128466E-18
   22.86194        4.8123126E-18
   22.98879        4.8117820E-18
   23.11563        4.8112584E-18
   23.24247        4.8107451E-18
   23.36932        4.8102422E-18
   23.49616        4.8097471E-18
   23.62300        4.8092570E-18
   23.74985        4.8087678E-18
   23.87669        4.8082748E-18
   24.00353        4.8077764E-18
   24.13038        4.8072697E-18
   24.25722        4.8067556E-18
   24.38407        4.8062366E-18
   24.51091        4.8057163E-18
   24.63775        4.8052001E-18
   24.76460        4.8046914E-18
   24.89144        4.8041943E-18
   25.01828        4.8037091E-18
   25.14513        4.8032360E-18
   25.27197        4.8027732E-18
   25.39882        4.8023166E-18
   25.52566        4.8018637E-18
   25.65250        4.8014096E-18
   25.77935        4.8009505E-18
   25.90619        4.8004844E-18
   26.03303        4.8000087E-18
   26.15988        4.7995236E-18
   26.28672        4.7990273E-18
   26.41356        4.7985223E-18
   26.54041        4.7980099E-18
   26.66725        4.7974929E-18
   26.79410        4.7969751E-18
   26.92094        4.7964601E-18
   27.04778        4.7959514E-18
   27.17463        4.7954506E-18
   27.30147        4.7949605E-18
   27.42831        4.7944815E-18
   27.55516        4.7940137E-18
   27.68200        4.7935571E-18
   27.80884        4.7931096E-18
   27.93569        4.7926696E-18
   28.06253        4.7922349E-18
   28.18937        4.7918035E-18
   28.31622        4.7913750E-18
   28.44306        4.7909486E-18
   28.56991        4.7905243E-18
   28.69675        4.7901037E-18
   28.82359        4.7896876E-18
   28.95044        4.7892781E-18
   29.07728        4.7888745E-18
   29.20412        4.7884754E-18
   29.33097        4.7880787E-18
   29.45781        4.7876792E-18
   29.58466        4.7872722E-18
   29.71150        4.7868520E-18
   29.83834        4.7864153E-18
   29.96519        4.7859591E-18
   30.09203        4.7854826E-18
   30.21887        4.7849871E-18
   30.34572        4.7844751E-18
   30.47256        4.7839494E-18
   30.59941        4.7834159E-18
   30.72625        4.7828787E-18
   30.85309        4.7823414E-18
   30.97993        4.7818070E-18
   31.10678        4.7812789E-18
   31.23362        4.7807549E-18
   31.36047        4.7802366E-18
   31.48731        4.7797213E-18
   31.61415        4.7792068E-18
   31.74100        4.7786906E-18
   31.86784        4.7781720E-18
   31.99468        4.7776509E-18
   32.12153        4.7771289E-18
   32.24837        4.7766086E-18
   32.37521        4.7760941E-18
   32.50206        4.7755875E-18
   32.62890        4.7750920E-18
   32.75574        4.7746093E-18
   32.88259        4.7741403E-18
   33.00943        4.7736841E-18
   33.13628        4.7732387E-18
   33.26312        4.7728024E-18
   33.38997        4.7723710E-18
   33.51681        4.7719413E-18
   33.64365        4.7715091E-18
   33.77050        4.7710698E-18
   33.89734        4.7706190E-18
   34.02418        4.7701546E-18
   34.15103        4.7696752E-18
   34.27787        4.7691818E-18
   34.40471        4.7686764E-18
   34.53156        4.7681619E-18
   34.65840        4.7676436E-18
   34.78524        4.7671267E-18
   34.91209        4.7666138E-18
   35.03893        4.7661076E-18
   35.16578        4.7656096E-18
   35.29262        4.7651187E-18
   35.41946        4.7646335E-18
   35.54631        4.7641517E-18
   35.67315        4.7636707E-18
   35.80000        4.7631884E-18
   35.92684        4.7627037E-18
   36.05368        4.7622157E-18
   36.18052        4.7617252E-18
   36.30737        4.7612338E-18
   36.43421        4.7607441E-18
   36.56105        4.7602586E-18
   36.68790        4.7597809E-18
   36.81474        4.7593115E-18
   36.94159        4.7588511E-18
   37.06843        4.7583978E-18
   37.19527        4.7579478E-18
   37.32212        4.7574966E-18
   37.44896        4.7570392E-18
   37.57581        4.7565731E-18
   37.70265        4.7560950E-18
   37.82949        4.7556040E-18
   37.95634        4.7551028E-18
   38.08318        4.7545936E-18
   38.21002        4.7540808E-18
   38.33687        4.7535696E-18
   38.46371        4.7530633E-18
   38.59055        4.7525654E-18
   38.71740        4.7520782E-18
   38.84424        4.7516025E-18
   38.97108        4.7511360E-18
   39.09793        4.7506769E-18
   39.22477        4.7502220E-18
   39.35162        4.7497670E-18
   39.47846        4.7493100E-18
   39.60530        4.7488493E-18
   39.73215        4.7483832E-18
   39.85899        4.7479137E-18
   39.98583        4.7474427E-18
   40.11268        4.7469728E-18
   40.23952        4.7465063E-18
   40.36636        4.7460447E-18
   40.49321        4.7455894E-18
   40.62005        4.7451406E-18
   40.74689        4.7446968E-18
   40.87374        4.7442564E-18
   41.00058        4.7438171E-18
   41.12743        4.7433762E-18
   41.25427        4.7429312E-18
   41.38111        4.7424800E-18
   41.50796        4.7420201E-18
   41.63480        4.7415498E-18
   41.76165        4.7410684E-18
   41.88849        4.7405754E-18
   42.01533        4.7400712E-18
   42.14218        4.7395559E-18
   42.26902        4.7390315E-18
   42.39586        4.7384983E-18
   42.52271        4.7379590E-18
   42.64955        4.7374143E-18
   42.77639        4.7368671E-18
   42.90324        4.7363187E-18
   43.03008        4.7357707E-18
   43.15693        4.7352256E-18
   43.28377        4.7346842E-18
   43.41061        4.7341474E-18
   43.53746        4.7336159E-18
   43.66430        4.7330898E-18
   43.79114        4.7325675E-18
   43.91799        4.7320496E-18
   44.04483        4.7315347E-18
   44.17167        4.7310239E-18
   44.29852        4.7305194E-18
   44.42536        4.7300231E-18
   44.55220        4.7295375E-18
   44.67905        4.7290648E-18
   44.80589        4.7286069E-18
   44.93274        4.7281636E-18
   45.05958        4.7277334E-18
   45.18642        4.7273136E-18
   45.31327        4.7269004E-18
   45.44011        4.7264898E-18
   45.56696        4.7260770E-18
   45.69380        4.7256589E-18
   45.82064        4.7252337E-18
   45.94748        4.7247994E-18
   46.07433        4.7243556E-18
   46.20117        4.7239032E-18
   46.32801        4.7234424E-18
   46.45486        4.7229751E-18
   46.58170        4.7225023E-18
   46.70855        4.7220255E-18
   46.83539        4.7215445E-18
   46.96223        4.7210593E-18
   47.08908        4.7205671E-18
   47.21592        4.7200679E-18
   47.34277        4.7195592E-18
   47.46961        4.7190406E-18
   47.59645        4.7185104E-18
   47.72330        4.7179714E-18
   47.85014        4.7174243E-18
   47.97698        4.7168725E-18
   48.10383        4.7163208E-18
   48.23067        4.7157720E-18
   48.35751        4.7152302E-18
   48.48436        4.7146975E-18
   48.61120        4.7141759E-18
   48.73804        4.7136672E-18
   48.86489        4.7131717E-18
   48.99173        4.7126891E-18
   49.11858        4.7122184E-18
   49.24542        4.7117577E-18
   49.37226        4.7113040E-18
   49.49911        4.7108527E-18
   49.62595        4.7104007E-18
   49.75279        4.7099432E-18
   49.87964        4.7094792E-18
   50.00648        4.7090065E-18
   50.13332        4.7085246E-18
   50.26017        4.7080354E-18
   50.38701        4.7075399E-18
   50.51385        4.7070415E-18
   50.64070        4.7065423E-18
   50.76754        4.7060456E-18
   50.89439        4.7055534E-18
   51.02123        4.7050654E-18
   51.14808        4.7045815E-18
   51.27492        4.7041000E-18
   51.40176        4.7036178E-18
   51.52861        4.7031314E-18
   51.65545        4.7026397E-18
   51.78229        4.7021400E-18
   51.90914        4.7016317E-18
   52.03598        4.7011176E-18
   52.16282        4.7006002E-18
   52.28967        4.7000845E-18
   52.41651        4.6995750E-18
   52.54335        4.6990745E-18
   52.67020        4.6985865E-18
   52.79704        4.6981100E-18
   52.92389        4.6976447E-18
   53.05073        4.6971873E-18
   53.17757        4.6967336E-18
   53.30442        4.6962807E-18
   53.43126        4.6958249E-18
   53.55810        4.6953638E-18
   53.68495        4.6948968E-18
   53.81179        4.6944241E-18
   53.93863        4.6939464E-18
   54.06548        4.6934662E-18
   54.19232        4.6929860E-18
   54.31916        4.6925088E-18
   54.44601        4.6920352E-18
   54.57285        4.6915658E-18
   54.69970        4.6910997E-18
   54.82654        4.6906348E-18
   54.95338        4.6901674E-18
   55.08023        4.6896939E-18
   55.20707        4.6892116E-18
   55.33392        4.6887182E-18
   55.46076        4.6882128E-18
   55.58760        4.6876958E-18
   55.71444        4.6871697E-18
   55.84129        4.6866370E-18
   55.96813        4.6861014E-18
   56.09497        4.6855658E-18
   56.22182        4.6850319E-18
   56.34866        4.6845021E-18
   56.47551        4.6839768E-18
   56.60235        4.6834557E-18
   56.72919        4.6829383E-18
   56.85604        4.6824229E-18
   56.98288        4.6819064E-18
   57.10973        4.6813881E-18
   57.23657        4.6808637E-18
   57.36341        4.6803314E-18
   57.49026        4.6797913E-18
   57.61710        4.6792433E-18
   57.74394        4.6786911E-18
   57.87079        4.6781386E-18
   57.99763        4.6775910E-18
   58.12447        4.6770545E-18
   58.25132        4.6765330E-18
   58.37816        4.6760309E-18
   58.50500        4.6755495E-18
   58.63185        4.6750879E-18
   58.75869        4.6746446E-18
   58.88554        4.6742152E-18
   59.01238        4.6737955E-18
   59.13923        4.6733794E-18
   59.26607        4.6729629E-18
   59.39291        4.6725406E-18
   59.51975        4.6721088E-18
   59.64660        4.6716667E-18
   59.77344        4.6712138E-18
   59.90028        4.6707518E-18
   60.02713        4.6702832E-18
   60.15397        4.6698109E-18
   60.28082        4.6693374E-18
   60.40766        4.6688634E-18
   60.53450        4.6683911E-18
   60.66135        4.6679179E-18
   60.78819        4.6674431E-18
   60.91504        4.6669638E-18
   61.04188        4.6664782E-18
   61.16872        4.6659848E-18
   61.29557        4.6654823E-18
   61.42241        4.6649707E-18
   61.54925        4.6644512E-18
   61.67610        4.6639243E-18
   61.80294        4.6633920E-18
   61.92978        4.6628568E-18
   62.05663        4.6623220E-18
   62.18347        4.6617910E-18
   62.31031        4.6612657E-18
   62.43716        4.6607487E-18
   62.56400        4.6602413E-18
   62.69085        4.6597441E-18
   62.81769        4.6592549E-18
   62.94453        4.6587718E-18
   63.07138        4.6582912E-18
   63.19822        4.6578106E-18
   63.32506        4.6573246E-18
   63.45191        4.6568296E-18
   63.57875        4.6563221E-18
   63.70559        4.6558006E-18
   63.83244        4.6552645E-18
   63.95928        4.6547132E-18
   64.08613        4.6541491E-18
   64.21297        4.6535763E-18
   64.33981        4.6529985E-18
   64.46666        4.6524190E-18
   64.59350        4.6518417E-18
   64.72034        4.6512680E-18
   64.84719        4.6506993E-18
   64.97403        4.6501327E-18
   65.10088        4.6495661E-18
   65.22771        4.6489986E-18
   65.35456        4.6484275E-18
   65.48141        4.6478534E-18
   65.60825        4.6472789E-18
   65.73509        4.6467074E-18
   65.86194        4.6461445E-18
   65.98878        4.6455956E-18
   66.11562        4.6450662E-18
   66.24247        4.6445600E-18
   66.36931        4.6440782E-18
   66.49615        4.6436224E-18
   66.62300        4.6431906E-18
   66.74984        4.6427791E-18
   66.87669        4.6423829E-18
   67.00353        4.6419970E-18
   67.13037        4.6416140E-18
   67.25722        4.6412285E-18
   67.38406        4.6408344E-18
   67.51090        4.6404282E-18
   67.63775        4.6400080E-18
   67.76459        4.6395733E-18
   67.89143        4.6391267E-18
   68.01828        4.6386696E-18
   68.14512        4.6382060E-18
   68.27197        4.6377391E-18
   68.39881        4.6372709E-18
   68.52565        4.6368039E-18
   68.65250        4.6363378E-18
   68.77934        4.6358729E-18
   68.90618        4.6354097E-18
   69.03303        4.6349465E-18
   69.15987        4.6344820E-18
   69.28671        4.6340159E-18
   69.41356        4.6335469E-18
   69.54041        4.6330742E-18
   69.66724        4.6325990E-18
   69.79409        4.6321221E-18
   69.92093        4.6316465E-18
   70.04778        4.6311754E-18
   70.17462        4.6307109E-18
   70.30146        4.6302572E-18
   70.42831        4.6298151E-18
   70.55515        4.6293837E-18
   70.68199        4.6289598E-18
   70.80884        4.6285375E-18
   70.93568        4.6281128E-18
   71.06252        4.6276764E-18
   71.18937        4.6272264E-18
   71.31622        4.6267587E-18
   71.44305        4.6262731E-18
   71.56990        4.6257714E-18
   71.69675        4.6252569E-18
   71.82359        4.6247358E-18
   71.95043        4.6242126E-18
   72.07728        4.6236931E-18
   72.20412        4.6231811E-18
   72.33096        4.6226790E-18
   72.45780        4.6221864E-18
   72.58465        4.6217004E-18
   72.71149        4.6212182E-18
   72.83833        4.6207351E-18
   72.96518        4.6202479E-18
   73.09203        4.6197533E-18
   73.21886        4.6192512E-18
   73.34571        4.6187429E-18
   73.47256        4.6182329E-18
   73.59940        4.6177258E-18
   73.72624        4.6172275E-18
   73.85309        4.6167427E-18
   73.97993        4.6162766E-18
   74.10677        4.6158316E-18
   74.23362        4.6154077E-18
   74.36046        4.6150028E-18
   74.48730        4.6146144E-18
   74.61415        4.6142380E-18
   74.74099        4.6138675E-18
   74.86784        4.6134969E-18
   74.99467        4.6131213E-18
   75.12152        4.6127363E-18
   75.24837        4.6123405E-18
   75.37521        4.6119327E-18
   75.50205        4.6115154E-18
   75.62890        4.6110910E-18
   75.75574        4.6106650E-18
   75.88258        4.6102419E-18
   76.00943        4.6098250E-18
   76.13627        4.6094181E-18
   76.26311        4.6090214E-18
   76.38996        4.6086355E-18
   76.51680        4.6082583E-18
   76.64365        4.6078861E-18
   76.77049        4.6075168E-18
   76.89733        4.6071445E-18
   77.02418        4.6067661E-18
   77.15102        4.6063798E-18
   77.27786        4.6059848E-18
   77.40471        4.6055828E-18
   77.53155        4.6051767E-18
   77.65839        4.6047718E-18
   77.78524        4.6043727E-18
   77.91208        4.6039847E-18
   78.03893        4.6036104E-18
   78.16577        4.6032510E-18
   78.29261        4.6029040E-18
   78.41946        4.6025661E-18
   78.54630        4.6022311E-18
   78.67314        4.6018948E-18
   78.79999        4.6015520E-18
   78.92683        4.6012000E-18
   79.05367        4.6008385E-18
   79.18052        4.6004696E-18
   79.30737        4.6000961E-18
   79.43420        4.5997227E-18
   79.56105        4.5993542E-18
   79.68790        4.5989952E-18
   79.81474        4.5986506E-18
   79.94158        4.5983223E-18
   80.06842        4.5980112E-18
   80.19527        4.5977172E-18
   80.32211        4.5974368E-18
   80.44895        4.5971650E-18
   80.57580        4.5968970E-18
   80.70264        4.5966274E-18
   80.82948        4.5963507E-18
   80.95633        4.5960641E-18
   81.08318        4.5957650E-18
   81.21001        4.5954540E-18
   81.33686        4.5951310E-18
   81.46371        4.5947972E-18
   81.59055        4.5944548E-18
   81.71739        4.5941045E-18
   81.84424        4.5937488E-18
   81.97108        4.5933873E-18
   82.09792        4.5930213E-18
   82.22476        4.5926507E-18
   82.35161        4.5922764E-18
   82.47845        4.5918980E-18
   82.60529        4.5915158E-18
   82.73214        4.5911295E-18
   82.85899        4.5907403E-18
   82.98582        4.5903499E-18
   83.11267        4.5899603E-18
   83.23952        4.5895740E-18
   83.36636        4.5891951E-18
   83.49320        4.5888275E-18
   83.62005        4.5884743E-18
   83.74689        4.5881376E-18
   83.87373        4.5878204E-18
   84.00058        4.5875209E-18
   84.12742        4.5872397E-18
   84.25426        4.5869742E-18
   84.38111        4.5867223E-18
   84.50795        4.5864812E-18
   84.63480        4.5862487E-18
   84.76163        4.5860229E-18
   84.88848        4.5858008E-18
   85.01533        4.5855808E-18
   85.14217        4.5853599E-18
   85.26901        4.5851366E-18
   85.39586        4.5849079E-18
   85.52270        4.5846725E-18
   85.64954        4.5844273E-18
   85.77639        4.5841721E-18
   85.90323        4.5839049E-18
   86.03008        4.5836253E-18
   86.15692        4.5833346E-18
   86.28376        4.5830331E-18
   86.41061        4.5827220E-18
   86.53745        4.5824040E-18
   86.66429        4.5820806E-18
   86.79114        4.5817547E-18
   86.91798        4.5814254E-18
   87.04482        4.5810958E-18
   87.17167        4.5807645E-18
   87.29851        4.5804328E-18
   87.42535        4.5801015E-18
   87.55220        4.5797715E-18
   87.67904        4.5794452E-18
   87.80589        4.5791242E-18
   87.93273        4.5788111E-18
   88.05957        4.5785080E-18
   88.18642        4.5782156E-18
   88.31326        4.5779343E-18
   88.44010        4.5776630E-18
   88.56695        4.5774000E-18
   88.69379        4.5771411E-18
   88.82063        4.5768846E-18
   88.94748        4.5766278E-18
   89.07433        4.5763681E-18
   89.20116        4.5761038E-18
   89.32801        4.5758345E-18
   89.45486        4.5755599E-18
   89.58170        4.5752816E-18
   89.70854        4.5750011E-18
   89.83538        4.5747203E-18
   89.96223        4.5744403E-18
   90.08907        4.5741632E-18
   90.21591        4.5738878E-18
   90.34276        4.5736131E-18
   90.46960        4.5733369E-18
   90.59644        4.5730568E-18
   90.72329        4.5727715E-18
   90.85014        4.5724795E-18
   90.97697        4.5721780E-18
   91.10382        4.5718682E-18
   91.23067        4.5715514E-18
   91.35751        4.5712288E-18
   91.48435        4.5709033E-18
   91.61120        4.5705782E-18
   91.73804        4.5702568E-18
   91.86488        4.5699413E-18
   91.99173        4.5696348E-18
   92.11857        4.5693378E-18
   92.24541        4.5690512E-18
   92.37225        4.5687729E-18
   92.49910        4.5684991E-18
   92.62595        4.5682257E-18
   92.75278        4.5679478E-18
   92.87963        4.5676599E-18
   93.00648        4.5673601E-18
   93.13332        4.5670466E-18
   93.26016        4.5667206E-18
   93.38701        4.5663856E-18
   93.51385        4.5660465E-18
   93.64069        4.5657073E-18
   93.76754        4.5653736E-18
   93.89438        4.5650481E-18
   94.02122        4.5647329E-18
   94.14807        4.5644277E-18
   94.27491        4.5641291E-18
   94.40176        4.5638342E-18
   94.52859        4.5635393E-18
   94.65544        4.5632399E-18
   94.78229        4.5629330E-18
   94.90913        4.5626187E-18
   95.03597        4.5622973E-18
   95.16282        4.5619701E-18
   95.28966        4.5616401E-18
   95.41650        4.5613113E-18
   95.54335        4.5609850E-18
   95.67019        4.5606624E-18
   95.79704        4.5603439E-18
   95.92388        4.5600279E-18
   96.05072        4.5597124E-18
   96.17757        4.5593943E-18
   96.30441        4.5590738E-18
   96.43125        4.5587495E-18
   96.55810        4.5584211E-18
   96.68494        4.5580911E-18
   96.81178        4.5577590E-18
   96.93863        4.5574277E-18
   97.06547        4.5570964E-18
   97.19231        4.5567664E-18
   97.31916        4.5564363E-18
   97.44600        4.5561063E-18
   97.57285        4.5557746E-18
   97.69969        4.5554420E-18
   97.82653        4.5551091E-18
   97.95338        4.5547786E-18
   98.08022        4.5544536E-18
   98.20706        4.5541363E-18
   98.33391        4.5538290E-18
   98.46075        4.5535313E-18
   98.58759        4.5532422E-18
   98.71444        4.5529576E-18
   98.84129        4.5526739E-18
   98.96812        4.5523864E-18
   99.09497        4.5520899E-18
   99.22182        4.5517814E-18
   99.34866        4.5514612E-18
   99.47550        4.5511304E-18
   99.60234        4.5507925E-18
   99.72919        4.5504533E-18
   99.85603        4.5501171E-18
   99.98287        4.5497866E-18
   100.1097        4.5494644E-18
   100.2366        4.5491497E-18
   100.3634        4.5488391E-18
   100.4902        4.5485285E-18
   100.6171        4.5482125E-18
   100.7439        4.5478874E-18
   100.8708        4.5475495E-18
   100.9976        4.5472000E-18
   101.1245        4.5468398E-18
   101.2513        4.5464742E-18
   101.3782        4.5461085E-18
   101.5050        4.5457479E-18
   101.6318        4.5453968E-18
   101.7587        4.5450576E-18
   101.8855        4.5447305E-18
   102.0124        4.5444137E-18
   102.1392        4.5441039E-18
   102.2661        4.5437957E-18
   102.3929        4.5434843E-18
   102.5197        4.5431654E-18
   102.6466        4.5428358E-18
   102.7734        4.5424950E-18
   102.9003        4.5421426E-18
   103.0271        4.5417824E-18
   103.1540        4.5414164E-18
   103.2808        4.5410491E-18
   103.4077        4.5406847E-18
   103.5345        4.5403249E-18
   103.6613        4.5399725E-18
   103.7882        4.5396280E-18
   103.9150        4.5392918E-18
   104.0419        4.5389634E-18
   104.1687        4.5386408E-18
   104.2956        4.5383215E-18
   104.4224        4.5380026E-18
   104.5492        4.5376829E-18
   104.6761        4.5373595E-18
   104.8029        4.5370319E-18
   104.9298        4.5366985E-18
   105.0566        4.5363602E-18
   105.1835        4.5360186E-18
   105.3103        4.5356757E-18
   105.4371        4.5353337E-18
   105.5640        4.5349945E-18
   105.6908        4.5346587E-18
   105.8177        4.5343258E-18
   105.9445        4.5339941E-18
   106.0714        4.5336599E-18
   106.1982        4.5333191E-18
   106.3251        4.5329680E-18
   106.4519        4.5326032E-18
   106.5787        4.5322235E-18
   106.7056        4.5318302E-18
   106.8324        4.5314261E-18
   106.9593        4.5310154E-18
   107.0861        4.5306043E-18
   107.2130        4.5301994E-18
   107.3398        4.5298036E-18
   107.4667        4.5294214E-18
   107.5935        4.5290541E-18
   107.7203        4.5287005E-18
   107.8472        4.5283581E-18
   107.9740        4.5280247E-18