  -7.200000        9.7844703E-19
  -7.073156        9.7844527E-19
  -6.946313        9.7844289E-19
  -6.819469        9.7844031E-19
  -6.692626        9.7843710E-19
  -6.565782        9.7843452E-19
  -6.438938        9.7843276E-19
  -6.312095        9.7843172E-19
  -6.185251        9.7843141E-19
  -6.058407        9.7843193E-19
  -5.931563        9.7843245E-19
  -5.804720        9.7843286E-19
  -5.677876        9.7843276E-19
  -5.551033        9.7843172E-19
  -5.424189        9.7843038E-19
  -5.297346        9.7842873E-19
  -5.170502        9.7842687E-19
  -5.043658        9.7842583E-19
  -4.916814        9.7842511E-19
  -4.789971        9.7842542E-19
  -4.663127        9.7842645E-19
  -4.536283        9.7842811E-19
  -4.409440        9.7843079E-19
  -4.282596        9.7843328E-19
  -4.155753        9.7843576E-19
  -4.028909        9.7843752E-19
  -3.902065        9.7843824E-19
  -3.775222        9.7843772E-19
  -3.648378        9.7843576E-19
  -3.521534        9.7843317E-19
  -3.394691        9.7843028E-19
  -3.267847        9.7842666E-19
  -3.141004        9.7842376E-19
  -3.014160        9.7842263E-19
  -2.887316        9.7842252E-19
  -2.760473        9.7842387E-19
  -2.633629        9.7842749E-19
  -2.506785        9.7843328E-19
  -2.379942        9.7844041E-19
  -2.253098        9.7844910E-19
  -2.126254        9.7845944E-19
  -1.999411        9.7847133E-19
  -1.872567        9.7848363E-19
  -1.745723        9.7849749E-19
  -1.618880        9.7851289E-19
  -1.492036        9.7853006E-19
  -1.365193        9.7854960E-19
  -1.238349        9.7857235E-19
  -1.111505        9.7859902E-19
 -0.9846617        9.7862932E-19
 -0.8578180        9.7866344E-19
 -0.7309744        9.7870170E-19
 -0.6041307        9.7874388E-19
 -0.4772871        9.7878814E-19
 -0.3504435        9.7883373E-19
 -0.2235998        9.7888037E-19
 -9.6756198E-02    9.7892700E-19
  3.0087441E-02    9.7897322E-19
  0.1569311        9.7901789E-19
  0.2837747        9.7906235E-19
  0.4106184        9.7910608E-19
  0.5374620        9.7914920E-19
  0.6643056        9.7919201E-19
  0.7911493        9.7923471E-19
  0.9179929        9.7927793E-19
   1.044837        9.7932094E-19
   1.171680        9.7936261E-19
   1.298524        9.7940294E-19
   1.425367        9.7944078E-19
   1.552211        9.7947583E-19
   1.679055        9.7950665E-19
   1.805898        9.7953239E-19
   1.932742        9.7955400E-19
   2.059586        9.7957055E-19
   2.186429        9.7958378E-19
   2.313273        9.7959391E-19
   2.440117        9.7960136E-19
   2.566960        9.7960684E-19
   2.693804        9.7961139E-19
   2.820647        9.7961521E-19
   2.947491        9.7961801E-19
   3.074335        9.7962100E-19
   3.201178        9.7962338E-19
   3.328022        9.7962566E-19
   3.454866        9.7962803E-19
   3.581709        9.7963072E-19
   3.708553        9.7963258E-19
   3.835397        9.7963517E-19
   3.962240        9.7963724E-19
   4.089084        9.7963993E-19
   4.215928        9.7964334E-19
   4.342771        9.7964634E-19
   4.469615        9.7964923E-19
   4.596458        9.7965171E-19
   4.723302        9.7965430E-19
   4.850146        9.7965616E-19
   4.976989        9.7965761E-19
   5.103833        9.7965854E-19
   5.230677        9.7965833E-19
   5.357520        9.7965771E-19
   5.484364        9.7965688E-19
   5.611207        9.7965637E-19
   5.738051        9.7965657E-19
   5.864895        9.7965719E-19
   5.991738        9.7965833E-19
   6.118582        9.7965967E-19
   6.245426        9.7966154E-19
   6.372270        9.7966371E-19
   6.499113        9.7966702E-19
   6.625957        9.7967188E-19
   6.752800        9.7967860E-19
   6.879644        9.7968832E-19
   7.006487        9.7970124E-19
   7.133331        9.7971851E-19
   7.260175        9.7973857E-19
   7.387019        9.7976204E-19
   7.513862        9.7978747E-19
   7.640706        9.7981405E-19
   7.767550        9.7984041E-19
   7.894393        9.7986533E-19
   8.021236        9.7988849E-19
   8.148081        9.7991010E-19
   8.274924        9.7992954E-19
   8.401768        9.7994743E-19
   8.528611        9.7996459E-19
   8.655455        9.7998196E-19
   8.782298        9.8000006E-19
   8.909142        9.8001950E-19
   9.035986        9.8004018E-19
   9.162829        9.8006230E-19
   9.289673        9.8008598E-19
   9.416516        9.8011090E-19
   9.543361        9.8013727E-19
   9.670204        9.8016425E-19
   9.797048        9.8019228E-19
   9.923891        9.8022123E-19
   10.05073        9.8025090E-19
   10.17758        9.8028120E-19
   10.30442        9.8031149E-19
   10.43127        9.8034127E-19
   10.55811        9.8037115E-19
   10.68495        9.8040041E-19
   10.81180        9.8042771E-19
   10.93864        9.8045439E-19
   11.06548        9.8047931E-19
   11.19233        9.8050309E-19
   11.31917        9.8052573E-19
   11.44602        9.8054776E-19
   11.57286        9.8056988E-19
   11.69970        9.8059139E-19
   11.82655        9.8061279E-19
   11.95339        9.8063409E-19
   12.08023        9.8065488E-19
   12.20708        9.8067587E-19
   12.33392        9.8069613E-19
   12.46076        9.8071609E-19
   12.58761        9.8073646E-19
   12.71445        9.8075796E-19
   12.84130        9.8078112E-19
   12.96814        9.8080687E-19
   13.09498        9.8083427E-19
   13.22183        9.8086395E-19
   13.34867        9.8089579E-19
   13.47551        9.8092847E-19
   13.60236        9.8096114E-19
   13.72920        9.8099247E-19
   13.85604        9.8102070E-19
   13.98289        9.8104603E-19
   14.10973        9.8106836E-19
   14.23658        9.8108853E-19
   14.36342        9.8110879E-19
   14.49026        9.8112968E-19
   14.61711        9.8115284E-19
   14.74395        9.8117993E-19
   14.87079        9.8121178E-19
   14.99764        9.8124724E-19
   15.12448        9.8128684E-19
   15.25132        9.8132913E-19
   15.37817        9.8137297E-19
   15.50501        9.8141702E-19
   15.63186        9.8146138E-19
   15.75870        9.8150553E-19
   15.88554        9.8154937E-19
   16.01239        9.8159383E-19
   16.13923        9.8164005E-19
   16.26607        9.8168854E-19
   16.39292        9.8173941E-19
   16.51976        9.8179266E-19
   16.64660        9.8184746E-19
   16.77345        9.8190216E-19
   16.90029        9.8195427E-19
   17.02714        9.8200235E-19
   17.15398        9.8204464E-19
   17.28082        9.8207897E-19
   17.40767        9.8210461E-19
   17.53451        9.8212147E-19
   17.66135        9.8213015E-19
   17.78820        9.8213170E-19
   17.91504        9.8212891E-19
   18.04188        9.8212250E-19
   18.16873        9.8211609E-19
   18.29557        9.8211144E-19
   18.42241        9.8211071E-19
   18.54926        9.8211547E-19
   18.67610        9.8212684E-19
   18.80295        9.8214649E-19
   18.92979        9.8217441E-19
   19.05663        9.8221070E-19
   19.18348        9.8225475E-19
   19.31032        9.8230479E-19
   19.43716        9.8235908E-19
   19.56401        9.8241615E-19
   19.69085        9.8247426E-19
   19.81770        9.8253082E-19
   19.94454        9.8258386E-19
   20.07138        9.8263204E-19
   20.19823        9.8267485E-19
   20.32507        9.8271094E-19
   20.45191        9.8274103E-19
   20.57876        9.8276481E-19
   20.70560        9.8278259E-19
   20.83245        9.8279624E-19
   20.95929        9.8280575E-19
   21.08613        9.8281175E-19
   21.21297        9.8281402E-19
   21.33982        9.8281423E-19
   21.46666        9.8281206E-19
   21.59351        9.8280885E-19
   21.72035        9.8280524E-19
   21.84719        9.8280234E-19
   21.97404        9.8280234E-19
   22.10088        9.8280606E-19
   22.22772        9.8281475E-19
   22.35457        9.8282922E-19
   22.48141        9.8284990E-19
   22.60826        9.8287668E-19
   22.73510        9.8290956E-19
   22.86194        9.8294761E-19
   22.98879        9.8298980E-19
   23.11563        9.8303457E-19
   23.24247        9.8308048E-19
   23.36932        9.8312680E-19
   23.49616        9.8317157E-19
   23.62300        9.8321448E-19
   23.74985        9.8325502E-19
   23.87669        9.8329317E-19
   24.00353        9.8332894E-19
   24.13038        9.8336307E-19
   24.25722        9.8339533E-19
   24.38407        9.8342655E-19
   24.51091        9.8345664E-19
   24.63775        9.8348632E-19
   24.76460        9.8351506E-19
   24.89144        9.8354246E-19
   25.01828        9.8356893E-19
   25.14513        9.8359333E-19
   25.27197        9.8361567E-19
   25.39882        9.8363552E-19
   25.52566        9.8365248E-19
   25.65250        9.8366705E-19
   25.77935        9.8367853E-19
   25.90619        9.8368866E-19
   26.03303        9.8369890E-19
   26.15988        9.8371038E-19
   26.28672        9.8372413E-19
   26.41356        9.8374129E-19
   26.54041        9.8376280E-19
   26.66725        9.8378782E-19
   26.79410        9.8381584E-19
   26.92094        9.8384614E-19
   27.04778        9.8387726E-19
   27.17463        9.8390683E-19
   27.30147        9.8393382E-19
   27.42831        9.8395719E-19
   27.55516        9.8397539E-19
   27.68200        9.8398810E-19
   27.80884        9.8399503E-19
   27.93569        9.8399689E-19
   28.06253        9.8399472E-19
   28.18937        9.8398997E-19
   28.31622        9.8398469E-19
   28.44306        9.8397921E-19
   28.56991        9.8397487E-19
   28.69675        9.8397301E-19
   28.82359        9.8397311E-19
   28.95044        9.8397632E-19
   29.07728        9.8398200E-19
   29.20412        9.8398997E-19
   29.33097        9.8400144E-19
   29.45781        9.8401633E-19
   29.58466        9.8403412E-19
   29.71150        9.8405531E-19
   29.83834        9.8407951E-19
   29.96519        9.8410691E-19
   30.09203        9.8413700E-19
   30.21887        9.8416946E-19
   30.34572        9.8420348E-19
   30.47256        9.8423946E-19
   30.59941        9.8427741E-19
   30.72625        9.8431587E-19
   30.85309        9.8435454E-19
   30.97993        9.8439270E-19
   31.10678        9.8442909E-19
   31.23362        9.8446208E-19
   31.36047        9.8449062E-19
   31.48731        9.8451460E-19
   31.61415        9.8453373E-19
   31.74100        9.8454893E-19
   31.86784        9.8456155E-19
   31.99468        9.8457333E-19
   32.12153        9.8458667E-19
   32.24837        9.8460353E-19
   32.37521        9.8462503E-19
   32.50206        9.8465150E-19
   32.62890        9.8468294E-19
   32.75574        9.8471830E-19
   32.88259        9.8475521E-19
   33.00943        9.8479088E-19
   33.13628        9.8482304E-19
   33.26312        9.8484837E-19
   33.38997        9.8486502E-19
   33.51681        9.8487277E-19
   33.64365        9.8487112E-19
   33.77050        9.8486264E-19
   33.89734        9.8485013E-19
   34.02418        9.8483627E-19
   34.15103        9.8482397E-19
   34.27787        9.8481446E-19
   34.40471        9.8481011E-19
   34.53156        9.8481022E-19
   34.65840        9.8481518E-19
   34.78524        9.8482335E-19
   34.91209        9.8483421E-19
   35.03893        9.8484775E-19
   35.16578        9.8486398E-19
   35.29262        9.8488260E-19
   35.41946        9.8490503E-19
   35.54631        9.8493243E-19
   35.67315        9.8496604E-19
   35.80000        9.8500657E-19
   35.92684        9.8505434E-19
   36.05368        9.8510831E-19
   36.18052        9.8516684E-19
   36.30737        9.8522743E-19
   36.43421        9.8528771E-19
   36.56105        9.8534478E-19
   36.68790        9.8539690E-19
   36.81474        9.8544229E-19
   36.94159        9.8547972E-19
   37.06843        9.8550919E-19
   37.19527        9.8553111E-19
   37.32212        9.8554589E-19
   37.44896        9.8555447E-19
   37.57581        9.8555809E-19
   37.70265        9.8555861E-19
   37.82949        9.8555665E-19
   37.95634        9.8555375E-19
   38.08318        9.8555189E-19
   38.21002        9.8555220E-19
   38.33687        9.8555623E-19
   38.46371        9.8556461E-19
   38.59055        9.8557784E-19
   38.71740        9.8559511E-19
   38.84424        9.8561455E-19
   38.97108        9.8563605E-19
   39.09793        9.8565735E-19
   39.22477        9.8567741E-19
   39.35162        9.8569561E-19
   39.47846        9.8571226E-19
   39.60530        9.8572787E-19
   39.73215        9.8574359E-19
   39.85899        9.8576034E-19
   39.98583        9.8577936E-19
   40.11268        9.8580232E-19
   40.23952        9.8582920E-19
   40.36636        9.8585991E-19
   40.49321        9.8589445E-19
   40.62005        9.8593032E-19
   40.74689        9.8596651E-19
   40.87374        9.8600125E-19
   41.00058        9.8603238E-19
   41.12743        9.8605843E-19
   41.25427        9.8607911E-19
   41.38111        9.8609524E-19
   41.50796        9.8610817E-19
   41.63480        9.8611861E-19
   41.76165        9.8612916E-19
   41.88849        9.8613970E-19
   42.01533        9.8615232E-19
   42.14218        9.8616679E-19
   42.26902        9.8618282E-19
   42.39586        9.8619916E-19
   42.52271        9.8621487E-19
   42.64955        9.8622821E-19
   42.77639        9.8623917E-19
   42.90324        9.8624724E-19
   43.03008        9.8625272E-19
   43.15693        9.8625696E-19
   43.28377        9.8626109E-19
   43.41061        9.8626626E-19
   43.53746        9.8627547E-19
   43.66430        9.8629066E-19
   43.79114        9.8631331E-19
   43.91799        9.8634516E-19
   44.04483        9.8638496E-19
   44.17167        9.8643315E-19
   44.29852        9.8648857E-19
   44.42536        9.8654885E-19
   44.55220        9.8661089E-19
   44.67905        9.8667272E-19
   44.80589        9.8673186E-19
   44.93274        9.8678604E-19
   45.05958        9.8683309E-19
   45.18642        9.8687248E-19
   45.31327        9.8690381E-19
   45.44011        9.8692635E-19
   45.56696        9.8694145E-19
   45.69380        9.8695034E-19
   45.82064        9.8695375E-19
   45.94748        9.8695272E-19
   46.07433        9.8694972E-19
   46.20117        9.8694476E-19
   46.32801        9.8693948E-19
   46.45486        9.8693452E-19
   46.58170        9.8692987E-19
   46.70855        9.8692594E-19
   46.83539        9.8692335E-19
   46.96223        9.8692335E-19
   47.08908        9.8692656E-19
   47.21592        9.8693400E-19
   47.34277        9.8694683E-19
   47.46961        9.8696533E-19
   47.59645        9.8698953E-19
   47.72330        9.8702003E-19
   47.85014        9.8705570E-19
   47.97698        9.8709613E-19
   48.10383        9.8714111E-19
   48.23067        9.8718857E-19
   48.35751        9.8723737E-19
   48.48436        9.8728618E-19
   48.61120        9.8733291E-19
   48.73804        9.8737603E-19
   48.86489        9.8741408E-19
   48.99173        9.8744572E-19
   49.11858        9.8747053E-19
   49.24542        9.8748894E-19
   49.37226        9.8750124E-19
   49.49911        9.8750889E-19
   49.62595        9.8751417E-19
   49.75279        9.8751923E-19
   49.87964        9.8752678E-19
   50.00648        9.8753795E-19
   50.13332        9.8755532E-19
   50.26017        9.8757889E-19
   50.38701        9.8760867E-19
   50.51385        9.8764362E-19
   50.64070        9.8768157E-19
   50.76754        9.8772086E-19
   50.89439        9.8775963E-19
   51.02123        9.8779520E-19
   51.14808        9.8782664E-19
   51.27492        9.8785300E-19
   51.40176        9.8787503E-19
   51.52861        9.8789333E-19
   51.65545        9.8790894E-19
   51.78229        9.8792259E-19
   51.90914        9.8793572E-19
   52.03598        9.8794854E-19
   52.16282        9.8796033E-19
   52.28967        9.8797212E-19
   52.41651        9.8798287E-19
   52.54335        9.8799280E-19
   52.67020        9.8800231E-19
   52.79704        9.8801213E-19
   52.92389        9.8802402E-19
   53.05073        9.8803798E-19
   53.17757        9.8805607E-19
   53.30442        9.8807882E-19
   53.43126        9.8810664E-19
   53.55810        9.8813931E-19
   53.68495        9.8817591E-19
   53.81179        9.8821551E-19
   53.93863        9.8825749E-19
   54.06548        9.8830102E-19
   54.19232        9.8834486E-19
   54.31916        9.8838839E-19
   54.44601        9.8843099E-19
   54.57285        9.8847204E-19
   54.69970        9.8851040E-19
   54.82654        9.8854525E-19
   54.95338        9.8857513E-19
   55.08023        9.8859974E-19
   55.20707        9.8861711E-19
   55.33392        9.8862745E-19
   55.46076        9.8863190E-19
   55.58760        9.8863003E-19
   55.71444        9.8862466E-19
   55.84129        9.8861938E-19
   55.96813        9.8861618E-19
   56.09497        9.8861752E-19
   56.22182        9.8862528E-19
   56.34866        9.8863996E-19
   56.47551        9.8866188E-19
   56.60235        9.8868876E-19
   56.72919        9.8871854E-19
   56.85604        9.8874884E-19
   56.98288        9.8877769E-19
   57.10973        9.8880436E-19
   57.23657        9.8882918E-19
   57.36341        9.8885275E-19
   57.49026        9.8887747E-19
   57.61710        9.8890600E-19
   57.74394        9.8894002E-19
   57.87079        9.8898252E-19
   57.99763        9.8903277E-19
   58.12447        9.8908974E-19
   58.25132        9.8915095E-19
   58.37816        9.8921278E-19
   58.50500        9.8927203E-19
   58.63185        9.8932394E-19
   58.75869        9.8936623E-19
   58.88554        9.8939714E-19
   59.01238        9.8941689E-19
   59.13923        9.8942723E-19
   59.26607        9.8943033E-19
   59.39291        9.8942868E-19
   59.51975        9.8942537E-19
   59.64660        9.8942227E-19
   59.77344        9.8942082E-19
   59.90028        9.8942082E-19
   60.02713        9.8942392E-19
   60.15397        9.8942775E-19
   60.28082        9.8943250E-19
   60.40766        9.8943809E-19
   60.53450        9.8944336E-19
   60.66135        9.8944863E-19
   60.78819        9.8945422E-19
   60.91504        9.8946104E-19
   61.04188        9.8946859E-19
   61.16872        9.8947821E-19
   61.29557        9.8949010E-19
   61.42241        9.8950436E-19
   61.54925        9.8952174E-19
   61.67610        9.8954159E-19
   61.80294        9.8956413E-19
   61.92978        9.8958905E-19
   62.05663        9.8961562E-19
   62.18347        9.8964374E-19
   62.31031        9.8967301E-19
   62.43716        9.8970320E-19
   62.56400        9.8973339E-19
   62.69085        9.8976379E-19
   62.81769        9.8979357E-19
   62.94453        9.8982283E-19
   63.07138        9.8985188E-19
   63.19822        9.8988032E-19
   63.32506        9.8990782E-19
   63.45191        9.8993471E-19
   63.57875        9.8996086E-19
   63.70559        9.8998661E-19
   63.83244        9.9001205E-19
   63.95928        9.9003717E-19
   64.08613        9.9006023E-19
   64.21297        9.9008091E-19
   64.33981        9.9009880E-19
   64.46666        9.9011214E-19
   64.59350        9.9012061E-19
   64.72034        9.9012465E-19
   64.84719        9.9012444E-19
   64.97403        9.9012103E-19
   65.10088        9.9011679E-19
   65.22771        9.9011431E-19
   65.35456        9.9011524E-19
   65.48141        9.9012144E-19
   65.60825        9.9013395E-19
   65.73509        9.9015380E-19
   65.86194        9.9018100E-19
   65.98878        9.9021471E-19
   66.11562        9.9025317E-19
   66.24247        9.9029525E-19
   66.36931        9.9033878E-19
   66.49615        9.9038128E-19
   66.62300        9.9042119E-19
   66.74984        9.9045748E-19
   66.87669        9.9048881E-19
   67.00353        9.9051549E-19
   67.13037        9.9053731E-19
   67.25722        9.9055447E-19
   67.38406        9.9056605E-19
   67.51090        9.9057298E-19
   67.63775        9.9057494E-19
   67.76459        9.9057132E-19
   67.89143        9.9056078E-19
   68.01828        9.9054320E-19
   68.14512        9.9051818E-19
   68.27197        9.9048592E-19
   68.39881        9.9044611E-19
   68.52565        9.9039906E-19
   68.65250        9.9034540E-19
   68.77934        9.9028584E-19
   68.90618        9.9022329E-19
   69.03303        9.9015887E-19
   69.15987        9.9009414E-19
   69.28671        9.9003107E-19
   69.41356        9.8997069E-19
   69.54041        9.8991247E-19
   69.66724        9.8985664E-19
   69.79409        9.8980050E-19
   69.92093        9.8974166E-19
   70.04778        9.8967859E-19
   70.17462        9.8960756E-19
   70.30146        9.8952639E-19
   70.42831        9.8943343E-19
   70.55515        9.8932745E-19
   70.68199        9.8920906E-19
   70.80884        9.8907775E-19
   70.93568        9.8893619E-19
   71.06252        9.8878617E-19
   71.18937        9.8863014E-19
   71.31622        9.8847132E-19
   71.44305        9.8831209E-19
   71.56990        9.8815420E-19
   71.69675        9.8799921E-19
   71.82359        9.8784742E-19
   71.95043        9.8769925E-19
   72.07728        9.8755408E-19
   72.20412        9.8741129E-19
   72.33096        9.8726963E-19
   72.45780        9.8712808E-19
   72.58465        9.8698550E-19
   72.71149        9.8683981E-19
   72.83833        9.8669030E-19
   72.96518        9.8653541E-19
   73.09203        9.8637473E-19
   73.21886        9.8620795E-19
   73.34571        9.8603527E-19
   73.47256        9.8585650E-19
   73.59940        9.8567214E-19
   73.72624        9.8548168E-19
   73.85309        9.8528543E-19
   73.97993        9.8508215E-19
   74.10677        9.8487143E-19
   74.23362        9.8465202E-19
   74.36046        9.8442320E-19
   74.48730        9.8418425E-19
   74.61415        9.8393506E-19
   74.74099        9.8367605E-19
   74.86784        9.8340877E-19
   74.99467        9.8313487E-19
   75.12152        9.8285642E-19
   75.24837        9.8257549E-19
   75.37521        9.8229455E-19
   75.50205        9.8201559E-19
   75.62890        9.8173993E-19
   75.75574        9.8146810E-19
   75.88258        9.8120020E-19
   76.00943        9.8093612E-19
   76.13627        9.8067421E-19
   76.26311        9.8041375E-19
   76.38996        9.8015298E-19
   76.51680        9.7989004E-19
   76.64365        9.7962328E-19
   76.77049        9.7935248E-19
   76.89733        9.7907641E-19
   77.02418        9.7879393E-19
   77.15102        9.7850462E-19
   77.27786        9.7820901E-19
   77.40471        9.7790626E-19
   77.53155        9.7759679E-19
   77.65839        9.7728091E-19
   77.78524        9.7695883E-19
   77.91208        9.7663178E-19
   78.03893        9.7629967E-19
   78.16577        9.7596290E-19
   78.29261        9.7562210E-19
   78.41946        9.7527748E-19
   78.54630        9.7492944E-19
   78.67314        9.7457913E-19
   78.79999        9.7422706E-19
   78.92683        9.7387427E-19
   79.05367        9.7352220E-19
   79.18052        9.7317230E-19
   79.30737        9.7282603E-19
   79.43420        9.7248440E-19
   79.56105        9.7214763E-19
   79.68790        9.7181459E-19
   79.81474        9.7148372E-19
   79.94158        9.7115181E-19
   80.06842        9.7081525E-19
   80.19527        9.7047135E-19
   80.32211        9.7011597E-19
   80.44895        9.6974623E-19
   80.57580        9.6936045E-19
   80.70264        9.6895916E-19
   80.82948        9.6854247E-19
   80.95633        9.6811399E-19
   81.08318        9.6767703E-19
   81.21001        9.6723532E-19
   81.33686        9.6679381E-19
   81.46371        9.6635540E-19
   81.59055        9.6592362E-19
   81.71739        9.6549958E-19
   81.84424        9.6508392E-19
   81.97108        9.6467675E-19
   82.09792        9.6427587E-19
   82.22476        9.6388017E-19
   82.35161        9.6348767E-19
   82.47845        9.6309704E-19
   82.60529        9.6270671E-19
   82.73214        9.6231566E-19
   82.85899        9.6192368E-19
   82.98582        9.6153098E-19
   83.11267        9.6113776E-19
   83.23952        9.6074381E-19
   83.36636        9.6034935E-19
   83.49320        9.5995437E-19
   83.62005        9.5955929E-19
   83.74689        9.5916348E-19
   83.87373        9.5876695E-19
   84.00058        9.5836856E-19
   84.12742        9.5796821E-19
   84.25426        9.5756392E-19
   84.38111        9.5715540E-19
   84.50795        9.5674098E-19
   84.63480        9.5632026E-19
   84.76163        9.5589198E-19
   84.88848        9.5545647E-19
   85.01533        9.5501403E-19
   85.14217        9.5456601E-19
   85.26901        9.5411479E-19
   85.39586        9.5366242E-19
   85.52270        9.5321202E-19
   85.64954        9.5276524E-19
   85.77639        9.5232415E-19
   85.90323        9.5188926E-19
   86.03008        9.5146129E-19
   86.15692        9.5103819E-19
   86.28376        9.5061995E-19
   86.41061        9.5020429E-19
   86.53745        9.4979070E-19
   86.66429        9.4937897E-19
   86.79114        9.4896817E-19
   86.91798        9.4855913E-19
   87.04482        9.4815392E-19
   87.17167        9.4775366E-19
   87.29851        9.4736003E-19
   87.42535        9.4697415E-19
   87.55220        9.4659561E-19
   87.67904        9.4622359E-19
   87.80589        9.4585601E-19
   87.93273        9.4548895E-19
   88.05957        9.4511858E-19
   88.18642        9.4474107E-19
   88.31326        9.4435250E-19
   88.44010        9.4395122E-19
   88.56695        9.4353659E-19
   88.69379        9.4310967E-19
   88.82063        9.4267281E-19
   88.94748        9.4223068E-19
   89.07433        9.4178742E-19
   89.20116        9.4134798E-19
   89.32801        9.4091557E-19
   89.45486        9.4049257E-19
   89.58170        9.4007960E-19
   89.70854        9.3967656E-19
   89.83538        9.3928168E-19
   89.96223        9.3889270E-19
   90.08907        9.3850754E-19
   90.21591        9.3812404E-19
   90.34276        9.3774054E-19
   90.46960        9.3735766E-19
   90.59644        9.3697436E-19
   90.72329        9.3659210E-19
   90.85014        9.3621129E-19
   90.97697        9.3583389E-19
   91.10382        9.3545959E-19
   91.23067        9.3508974E-19
   91.35751        9.3472360E-19
   91.48435        9.3436016E-19
   91.61120        9.3399765E-19
   91.73804        9.3363472E-19
   91.86488        9.3326952E-19
   91.99173        9.3290071E-19
   92.11857        9.3252713E-19
   92.24541        9.3214880E-19
   92.37225        9.3176736E-19
   92.49910        9.3138335E-19
   92.62595        9.3099819E-19
   92.75278        9.3061386E-19
   92.87963        9.3023129E-19
   93.00648        9.2985213E-19
   93.13332        9.2947804E-19
   93.26016        9.2911005E-19
   93.38701        9.2874950E-19
   93.51385        9.2839609E-19
   93.64069        9.2805043E-19
   93.76754        9.2771190E-19
   93.89438        9.2737927E-19
   94.02122        9.2705150E-19
   94.14807        9.2672735E-19
   94.27491        9.2640537E-19
   94.40176        9.2608381E-19
   94.52859        9.2576059E-19
   94.65544        9.2543437E-19
   94.78229        9.2510515E-19
   94.90913        9.2477242E-19
   95.03597        9.2443617E-19
   95.16282        9.2409640E-19
   95.28966        9.2375343E-19
   95.41650        9.2340829E-19
   95.54335        9.2306077E-19
   95.67019        9.2270984E-19
   95.79704        9.2235622E-19
   95.92388        9.2199815E-19
   96.05072        9.2163564E-19
   96.17757        9.2126786E-19
   96.30441        9.2089604E-19
   96.43125        9.2052060E-19
   96.55810        9.2014372E-19
   96.68494        9.1976777E-19
   96.81178        9.1939636E-19
   96.93863        9.1903282E-19
   97.06547        9.1867961E-19
   97.19231        9.1833871E-19
   97.31916        9.1801125E-19
   97.44600        9.1769744E-19
   97.57285        9.1739469E-19
   97.69969        9.1710166E-19
   97.82653        9.1681473E-19
   97.95338        9.1653039E-19
   98.08022        9.1624573E-19
   98.20706        9.1595788E-19
   98.33391        9.1566474E-19
   98.46075        9.1536603E-19
   98.58759        9.1506287E-19
   98.71444        9.1475546E-19
   98.84129        9.1444589E-19
   98.96812        9.1413632E-19
   99.09497        9.1382706E-19
   99.22182        9.1351883E-19
   99.34866        9.1321112E-19
   99.47550        9.1290175E-19
   99.60234        9.1258908E-19
   99.72919        9.1227165E-19
   99.85603        9.1194677E-19
   99.98287        9.1161394E-19
   100.1097        9.1127190E-19
   100.2366        9.1092221E-19
   100.3634        9.1056673E-19
   100.4902        9.1020711E-19
   100.6171        9.0984780E-19
   100.7439        9.0949108E-19
   100.8708        9.0914118E-19
   100.9976        9.0879997E-19
   101.1245        9.0846982E-19
   101.2513        9.0815084E-19
   101.3782        9.0784241E-19
   101.5050        9.0754338E-19
   101.6318        9.0725108E-19
   101.7587        9.0696301E-19
   101.8855        9.0667670E-19
   102.0124        9.0638946E-19
   102.1392        9.0610026E-19
   102.2661        9.0580816E-19
   102.3929        9.0551296E-19
   102.5197        9.0521435E-19
   102.6466        9.0491429E-19
   102.7734        9.0461340E-19
   102.9003        9.0431283E-19
   103.0271        9.0401287E-19
   103.1540        9.0371333E-19
   103.2808        9.0341389E-19
   103.4077        9.0311424E-19
   103.5345        9.0281273E-19
   103.6613        9.0250813E-19
   103.7882        9.0219917E-19
   103.9150        9.0188505E-19
   104.0419        9.0156504E-19
   104.1687        9.0123933E-19
   104.2956        9.0090722E-19
   104.4224        9.0057087E-19
   104.5492        9.0023079E-19
   104.6761        8.9988855E-19
   104.8029        8.9954506E-19
   104.9298        8.9920292E-19
   105.0566        8.9886357E-19
   105.1835        8.9852846E-19
   105.3103        8.9819769E-19
   105.4371        8.9787198E-19
   105.5640        8.9755176E-19
   105.6908        8.9723568E-19
   105.8177        8.9692424E-19
   105.9445        8.9661539E-19
   106.0714        8.9630872E-19
   106.1982        8.9600307E-19
   106.3251        8.9569774E-19
   106.4519        8.9539158E-19
   106.5787        8.9508418E-19
   106.7056        8.9477564E-19
   106.8324        8.9446597E-19
   106.9593        8.9415484E-19
   107.0861        8.9384382E-19
   107.2130        8.9353270E-19
   107.3398        8.9322116E-19
   107.4667        8.9290911E-19
   107.5935        8.9259664E-19
   107.7203        8.9228324E-19
   107.8472        8.9196778E-19
   107.9740        8.9164900E-19