  -7.200000        9.8404830E-18
  -7.073156        9.8404847E-18
  -6.946313        9.8404880E-18
  -6.819469        9.8404938E-18
  -6.692626        9.8405004E-18
  -6.565782        9.8405087E-18
  -6.438938        9.8405169E-18
  -6.312095        9.8405227E-18
  -6.185251        9.8405260E-18
  -6.058407        9.8405260E-18
  -5.931563        9.8405244E-18
  -5.804720        9.8405219E-18
  -5.677876        9.8405161E-18
  -5.551033        9.8405078E-18
  -5.424189        9.8404946E-18
  -5.297346        9.8404772E-18
  -5.170502        9.8404549E-18
  -5.043658        9.8404293E-18
  -4.916814        9.8404028E-18
  -4.789971        9.8403796E-18
  -4.663127        9.8403589E-18
  -4.536283        9.8403432E-18
  -4.409440        9.8403316E-18
  -4.282596        9.8403242E-18
  -4.155753        9.8403192E-18
  -4.028909        9.8403201E-18
  -3.902065        9.8403267E-18
  -3.775222        9.8403407E-18
  -3.648378        9.8403639E-18
  -3.521534        9.8403978E-18
  -3.394691        9.8404400E-18
  -3.267847        9.8404888E-18
  -3.141004        9.8405426E-18
  -3.014160        9.8405997E-18
  -2.887316        9.8406559E-18
  -2.760473        9.8407105E-18
  -2.633629        9.8407610E-18
  -2.506785        9.8408056E-18
  -2.379942        9.8408404E-18
  -2.253098        9.8408619E-18
  -2.126254        9.8408635E-18
  -1.999411        9.8408428E-18
  -1.872567        9.8407965E-18
  -1.745723        9.8407237E-18
  -1.618880        9.8406245E-18
  -1.492036        9.8404996E-18
  -1.365193        9.8403490E-18
  -1.238349        9.8401712E-18
  -1.111505        9.8399660E-18
 -0.9846617        9.8397311E-18
 -0.8578180        9.8394656E-18
 -0.7309744        9.8391695E-18
 -0.6041307        9.8388444E-18
 -0.4772871        9.8384945E-18
 -0.3504435        9.8381198E-18
 -0.2235998        9.8377244E-18
 -9.6756198E-02    9.8373083E-18
  3.0087441E-02    9.8368732E-18
  0.1569311        9.8364183E-18
  0.2837747        9.8359443E-18
  0.4106184        9.8354538E-18
  0.5374620        9.8349484E-18
  0.6643056        9.8344330E-18
  0.7911493        9.8339119E-18
  0.9179929        9.8333858E-18
   1.044837        9.8328589E-18
   1.171680        9.8323295E-18
   1.298524        9.8318026E-18
   1.425367        9.8312815E-18
   1.552211        9.8307670E-18
   1.679055        9.8302665E-18
   1.805898        9.8297826E-18
   1.932742        9.8293194E-18
   2.059586        9.8288768E-18
   2.186429        9.8284525E-18
   2.313273        9.8280439E-18
   2.440117        9.8276510E-18
   2.566960        9.8272721E-18
   2.693804        9.8269115E-18
   2.820647        9.8265715E-18
   2.947491        9.8262596E-18
   3.074335        9.8259801E-18
   3.201178        9.8257377E-18
   3.328022        9.8255342E-18
   3.454866        9.8253729E-18
   3.581709        9.8252579E-18
   3.708553        9.8251918E-18
   3.835397        9.8251810E-18
   3.962240        9.8252290E-18
   4.089084        9.8253382E-18
   4.215928        9.8255086E-18
   4.342771        9.8257385E-18
   4.469615        9.8260231E-18
   4.596458        9.8263556E-18
   4.723302        9.8267320E-18
   4.850146        9.8271489E-18
   4.976989        9.8276030E-18
   5.103833        9.8280919E-18
   5.230677        9.8286138E-18
   5.357520        9.8291647E-18
   5.484364        9.8297363E-18
   5.611207        9.8303236E-18
   5.738051        9.8309200E-18
   5.864895        9.8315222E-18
   5.991738        9.8321301E-18
   6.118582        9.8327456E-18
   6.245426        9.8333717E-18
   6.372270        9.8340128E-18
   6.499113        9.8346712E-18
   6.625957        9.8353471E-18
   6.752800        9.8360394E-18
   6.879644        9.8367491E-18
   7.006487        9.8374779E-18
   7.133331        9.8382281E-18
   7.260175        9.8390024E-18
   7.387019        9.8398023E-18
   7.513862        9.8406261E-18
   7.640706        9.8414682E-18
   7.767550        9.8423227E-18
   7.894393        9.8431796E-18
   8.021236        9.8440341E-18
   8.148081        9.8448787E-18
   8.274924        9.8457116E-18
   8.401768        9.8465297E-18
   8.528611        9.8473296E-18
   8.655455        9.8481080E-18
   8.782298        9.8488599E-18
   8.909142        9.8495795E-18
   9.035986        9.8502644E-18
   9.162829        9.8509121E-18
   9.289673        9.8515242E-18
   9.416516        9.8521057E-18
   9.543361        9.8526616E-18
   9.670204        9.8531943E-18
   9.797048        9.8537096E-18
   9.923891        9.8542076E-18
   10.05073        9.8546890E-18
   10.17758        9.8551555E-18
   10.30442        9.8556113E-18
   10.43127        9.8560613E-18
   10.55811        9.8565105E-18
   10.68495        9.8569654E-18
   10.81180        9.8574286E-18
   10.93864        9.8579018E-18
   11.06548        9.8583840E-18
   11.19233        9.8588737E-18
   11.31917        9.8593725E-18
   11.44602        9.8598829E-18
   11.57286        9.8604073E-18
   11.69970        9.8609483E-18
   11.82655        9.8615091E-18
   11.95339        9.8620906E-18
   12.08023        9.8626895E-18
   12.20708        9.8633025E-18
   12.33392        9.8639245E-18
   12.46076        9.8645490E-18
   12.58761        9.8651744E-18
   12.71445        9.8657997E-18
   12.84130        9.8664234E-18
   12.96814        9.8670438E-18
   13.09498        9.8676600E-18
   13.22183        9.8682688E-18
   13.34867        9.8688702E-18
   13.47551        9.8694625E-18
   13.60236        9.8700481E-18
   13.72920        9.8706304E-18
   13.85604        9.8712161E-18
   13.98289        9.8718100E-18
   14.10973        9.8724163E-18
   14.23658        9.8730367E-18
   14.36342        9.8736712E-18
   14.49026        9.8743180E-18
   14.61711        9.8749740E-18
   14.74395        9.8756382E-18
   14.87079        9.8763074E-18
   14.99764        9.8769840E-18
   15.12448        9.8776648E-18
   15.25132        9.8783489E-18
   15.37817        9.8790305E-18
   15.50501        9.8797071E-18
   15.63186        9.8803738E-18
   15.75870        9.8810265E-18
   15.88554        9.8816634E-18
   16.01239        9.8822838E-18
   16.13923        9.8828884E-18
   16.26607        9.8834807E-18
   16.39292        9.8840605E-18
   16.51976        9.8846305E-18
   16.64660        9.8851888E-18
   16.77345        9.8857381E-18
   16.90029        9.8862782E-18
   17.02714        9.8868118E-18
   17.15398        9.8873411E-18
   17.28082        9.8878689E-18
   17.40767        9.8883983E-18
   17.53451        9.8889285E-18
   17.66135        9.8894587E-18
   17.78820        9.8899865E-18
   17.91504        9.8905109E-18
   18.04188        9.8910295E-18
   18.16873        9.8915441E-18
   18.29557        9.8920569E-18
   18.42241        9.8925698E-18
   18.54926        9.8930843E-18
   18.67610        9.8936021E-18
   18.80295        9.8941224E-18
   18.92979        9.8946443E-18
   19.05663        9.8951679E-18
   19.18348        9.8956948E-18
   19.31032        9.8962275E-18
   19.43716        9.8967685E-18
   19.56401        9.8973211E-18
   19.69085        9.8978852E-18
   19.81770        9.8984609E-18
   19.94454        9.8990474E-18
   20.07138        9.8996430E-18
   20.19823        9.9002452E-18
   20.32507        9.9008556E-18
   20.45191        9.9014735E-18
   20.57876        9.9020980E-18
   20.70560        9.9027284E-18
   20.83245        9.9033612E-18
   20.95929        9.9039915E-18
   21.08613        9.9046152E-18
   21.21297        9.9052289E-18
   21.33982        9.9058286E-18
   21.46666        9.9064135E-18
   21.59351        9.9069826E-18
   21.72035        9.9075384E-18
   21.84719        9.9080802E-18
   21.97404        9.9086104E-18
   22.10088        9.9091316E-18
   22.22772        9.9096428E-18
   22.35457        9.9101490E-18
   22.48141        9.9106528E-18
   22.60826        9.9111598E-18
   22.73510        9.9116743E-18
   22.86194        9.9122004E-18
   22.98879        9.9127422E-18
   23.11563        9.9132997E-18
   23.24247        9.9138705E-18
   23.36932        9.9144561E-18
   23.49616        9.9150525E-18
   23.62300        9.9156605E-18
   23.74985        9.9162784E-18
   23.87669        9.9169046E-18
   24.00353        9.9175390E-18
   24.13038        9.9181776E-18
   24.25722        9.9188187E-18
   24.38407        9.9194573E-18
   24.51091        9.9200917E-18
   24.63775        9.9207195E-18
   24.76460        9.9213399E-18
   24.89144        9.9219512E-18
   25.01828        9.9225542E-18
   25.14513        9.9231498E-18
   25.27197        9.9237379E-18
   25.39882        9.9243194E-18
   25.52566        9.9248943E-18
   25.65250        9.9254659E-18
   25.77935        9.9260342E-18
   25.90619        9.9266016E-18
   26.03303        9.9271715E-18
   26.15988        9.9277456E-18
   26.28672        9.9283238E-18
   26.41356        9.9289078E-18
   26.54041        9.9294959E-18
   26.66725        9.9300874E-18
   26.79410        9.9306821E-18
   26.92094        9.9312802E-18
   27.04778        9.9318823E-18
   27.17463        9.9324887E-18
   27.30147        9.9330991E-18
   27.42831        9.9337129E-18
   27.55516        9.9343291E-18
   27.68200        9.9349470E-18
   27.80884        9.9355641E-18
   27.93569        9.9361804E-18
   28.06253        9.9367933E-18
   28.18937        9.9374038E-18
   28.31622        9.9380109E-18
   28.44306        9.9386139E-18
   28.56991        9.9392103E-18
   28.69675        9.9397993E-18
   28.82359        9.9403791E-18
   28.95044        9.9409499E-18
   29.07728        9.9415107E-18
   29.20412        9.9420649E-18
   29.33097        9.9426142E-18
   29.45781        9.9431593E-18
   29.58466        9.9437028E-18
   29.71150        9.9442470E-18
   29.83834        9.9447921E-18
   29.96519        9.9453397E-18
   30.09203        9.9458915E-18
   30.21887        9.9464498E-18
   30.34572        9.9470173E-18
   30.47256        9.9475938E-18
   30.59941        9.9481803E-18
   30.72625        9.9487767E-18
   30.85309        9.9493805E-18
   30.97993        9.9499902E-18
   31.10678        9.9506047E-18
   31.23362        9.9512202E-18
   31.36047        9.9518364E-18
   31.48731        9.9524510E-18
   31.61415        9.9530631E-18
   31.74100        9.9536703E-18
   31.86784        9.9542716E-18
   31.99468        9.9548639E-18
   32.12153        9.9554479E-18
   32.24837        9.9560203E-18
   32.37521        9.9565803E-18
   32.50206        9.9571287E-18
   32.62890        9.9576672E-18
   32.75574        9.9581983E-18
   32.88259        9.9587260E-18
   33.00943        9.9592513E-18
   33.13628        9.9597765E-18
   33.26312        9.9603034E-18
   33.38997        9.9608320E-18
   33.51681        9.9613664E-18
   33.64365        9.9619057E-18
   33.77050        9.9624558E-18
   33.89734        9.9630174E-18
   34.02418        9.9635915E-18
   34.15103        9.9641780E-18
   34.27787        9.9647760E-18
   34.40471        9.9653823E-18
   34.53156        9.9659961E-18
   34.65840        9.9666165E-18
   34.78524        9.9672410E-18
   34.91209        9.9678721E-18
   35.03893        9.9685091E-18
   35.16578        9.9691510E-18
   35.29262        9.9697962E-18
   35.41946        9.9704430E-18
   35.54631        9.9710882E-18
   35.67315        9.9717285E-18
   35.80000        9.9723637E-18
   35.92684        9.9729916E-18
   36.05368        9.9736144E-18
   36.18052        9.9742299E-18
   36.30737        9.9748370E-18
   36.43421        9.9754334E-18
   36.56105        9.9760174E-18
   36.68790        9.9765881E-18
   36.81474        9.9771448E-18
   36.94159        9.9776891E-18
   37.06843        9.9782243E-18
   37.19527        9.9787529E-18
   37.32212        9.9792790E-18
   37.44896        9.9798026E-18
   37.57581        9.9803278E-18
   37.70265        9.9808564E-18
   37.82949        9.9813883E-18
   37.95634        9.9819276E-18
   38.08318        9.9824760E-18
   38.21002        9.9830360E-18
   38.33687        9.9836126E-18
   38.46371        9.9842057E-18
   38.59055        9.9848153E-18
   38.71740        9.9854398E-18
   38.84424        9.9860759E-18
   38.97108        9.9867219E-18
   39.09793        9.9873746E-18
   39.22477        9.9880314E-18
   39.35162        9.9886898E-18
   39.47846        9.9893482E-18
   39.60530        9.9900042E-18
   39.73215        9.9906527E-18
   39.85899        9.9912921E-18
   39.98583        9.9919158E-18
   40.11268        9.9925246E-18
   40.23952        9.9931160E-18
   40.36636        9.9936918E-18
   40.49321        9.9942559E-18
   40.62005        9.9948101E-18
   40.74689        9.9953569E-18
   40.87374        9.9958954E-18
   41.00058        9.9964264E-18
   41.12743        9.9969492E-18
   41.25427        9.9974654E-18
   41.38111        9.9979774E-18
   41.50796        9.9984919E-18
   41.63480        9.9990138E-18
   41.76165        9.9995465E-18
   41.88849        1.0000095E-17
   42.01533        1.0000657E-17
   42.14218        1.0001233E-17
   42.26902        1.0001821E-17
   42.39586        1.0002420E-17
   42.52271        1.0003032E-17
   42.64955        1.0003656E-17
   42.77639        1.0004293E-17
   42.90324        1.0004941E-17
   43.03008        1.0005594E-17
   43.15693        1.0006246E-17
   43.28377        1.0006891E-17
   43.41061        1.0007525E-17
   43.53746        1.0008144E-17
   43.66430        1.0008751E-17
   43.79114        1.0009345E-17
   43.91799        1.0009930E-17
   44.04483        1.0010504E-17
   44.17167        1.0011067E-17
   44.29852        1.0011613E-17
   44.42536        1.0012143E-17
   44.55220        1.0012654E-17
   44.67905        1.0013152E-17
   44.80589        1.0013642E-17
   44.93274        1.0014131E-17
   45.05958        1.0014626E-17
   45.18642        1.0015128E-17
   45.31327        1.0015638E-17
   45.44011        1.0016153E-17
   45.56696        1.0016670E-17
   45.69380        1.0017191E-17
   45.82064        1.0017720E-17
   45.94748        1.0018262E-17
   46.07433        1.0018822E-17
   46.20117        1.0019403E-17
   46.32801        1.0020004E-17
   46.45486        1.0020621E-17
   46.58170        1.0021246E-17
   46.70855        1.0021877E-17
   46.83539        1.0022512E-17
   46.96223        1.0023157E-17
   47.08908        1.0023813E-17
   47.21592        1.0024484E-17
   47.34277        1.0025170E-17
   47.46961        1.0025867E-17
   47.59645        1.0026567E-17
   47.72330        1.0027263E-17
   47.85014        1.0027948E-17
   47.97698        1.0028619E-17
   48.10383        1.0029280E-17
   48.23067        1.0029934E-17
   48.35751        1.0030584E-17
   48.48436        1.0031232E-17
   48.61120        1.0031873E-17
   48.73804        1.0032502E-17
   48.86489        1.0033118E-17
   48.99173        1.0033715E-17
   49.11858        1.0034299E-17
   49.24542        1.0034876E-17
   49.37226        1.0035455E-17
   49.49911        1.0036043E-17
   49.62595        1.0036643E-17
   49.75279        1.0037254E-17
   49.87964        1.0037868E-17
   50.00648        1.0038481E-17
   50.13332        1.0039088E-17
   50.26017        1.0039692E-17
   50.38701        1.0040293E-17
   50.51385        1.0040901E-17
   50.64070        1.0041514E-17
   50.76754        1.0042133E-17
   50.89439        1.0042751E-17
   51.02123        1.0043358E-17
   51.14808        1.0043945E-17
   51.27492        1.0044508E-17
   51.40176        1.0045045E-17
   51.52861        1.0045563E-17
   51.65545        1.0046066E-17
   51.78229        1.0046561E-17
   51.90914        1.0047048E-17
   52.03598        1.0047525E-17
   52.16282        1.0047987E-17
   52.28967        1.0048433E-17
   52.41651        1.0048866E-17
   52.54335        1.0049291E-17
   52.67020        1.0049719E-17
   52.79704        1.0050161E-17
   52.92389        1.0050623E-17
   53.05073        1.0051107E-17
   53.17757        1.0051610E-17
   53.30442        1.0052124E-17
   53.43126        1.0052647E-17
   53.55810        1.0053176E-17
   53.68495        1.0053716E-17
   53.81179        1.0054274E-17
   53.93863        1.0054853E-17
   54.06548        1.0055453E-17
   54.19232        1.0056071E-17
   54.31916        1.0056701E-17
   54.44601        1.0057333E-17
   54.57285        1.0057963E-17
   54.69970        1.0058592E-17
   54.82654        1.0059226E-17
   54.95338        1.0059871E-17
   55.08023        1.0060532E-17
   55.20707        1.0061211E-17
   55.33392        1.0061904E-17
   55.46076        1.0062602E-17
   55.58760        1.0063297E-17
   55.71444        1.0063986E-17
   55.84129        1.0064668E-17
   55.96813        1.0065349E-17
   56.09497        1.0066032E-17
   56.22182        1.0066720E-17
   56.34866        1.0067410E-17
   56.47551        1.0068096E-17
   56.60235        1.0068768E-17
   56.72919        1.0069421E-17
   56.85604        1.0070052E-17
   56.98288        1.0070664E-17
   57.10973        1.0071266E-17
   57.23657        1.0071864E-17
   57.36341        1.0072463E-17
   57.49026        1.0073061E-17
   57.61710        1.0073654E-17
   57.74394        1.0074234E-17
   57.87079        1.0074794E-17
   57.99763        1.0075338E-17
   58.12447        1.0075868E-17
   58.25132        1.0076397E-17
   58.37816        1.0076930E-17
   58.50500        1.0077475E-17
   58.63185        1.0078028E-17
   58.75869        1.0078580E-17
   58.88554        1.0079125E-17
   59.01238        1.0079652E-17
   59.13923        1.0080164E-17
   59.26607        1.0080666E-17
   59.39291        1.0081167E-17
   59.51975        1.0081676E-17
   59.64660        1.0082197E-17
   59.77344        1.0082726E-17
   59.90028        1.0083255E-17
   60.02713        1.0083775E-17
   60.15397        1.0084280E-17
   60.28082        1.0084770E-17
   60.40766        1.0085255E-17
   60.53450        1.0085745E-17
   60.66135        1.0086248E-17
   60.78819        1.0086769E-17
   60.91504        1.0087302E-17
   61.04188        1.0087840E-17
   61.16872        1.0088370E-17
   61.29557        1.0088889E-17
   61.42241        1.0089400E-17
   61.54925        1.0089910E-17
   61.67610        1.0090431E-17
   61.80294        1.0090973E-17
   61.92978        1.0091536E-17
   62.05663        1.0092115E-17
   62.18347        1.0092700E-17
   62.31031        1.0093279E-17
   62.43716        1.0093851E-17
   62.56400        1.0094417E-17
   62.69085        1.0094986E-17
   62.81769        1.0095569E-17
   62.94453        1.0096173E-17
   63.07138        1.0096798E-17
   63.19822        1.0097435E-17
   63.32506        1.0098072E-17
   63.45191        1.0098698E-17
   63.57875        1.0099308E-17
   63.70559        1.0099901E-17
   63.83244        1.0100487E-17
   63.95928        1.0101073E-17
   64.08613        1.0101665E-17
   64.21297        1.0102263E-17
   64.33981        1.0102856E-17
   64.46666        1.0103438E-17
   64.59350        1.0104001E-17
   64.72034        1.0104545E-17
   64.84719        1.0105076E-17
   64.97403        1.0105605E-17
   65.10088        1.0106142E-17
   65.22771        1.0106692E-17
   65.35456        1.0107254E-17
   65.48141        1.0107819E-17
   65.60825        1.0108377E-17
   65.73509        1.0108925E-17
   65.86194        1.0109462E-17
   65.98878        1.0109998E-17
   66.11562        1.0110543E-17
   66.24247        1.0111107E-17
   66.36931        1.0111689E-17
   66.49615        1.0112286E-17
   66.62300        1.0112888E-17
   66.74984        1.0113484E-17
   66.87669        1.0114066E-17
   67.00353        1.0114637E-17
   67.13037        1.0115204E-17
   67.25722        1.0115773E-17
   67.38406        1.0116352E-17
   67.51090        1.0116939E-17
   67.63775        1.0117528E-17
   67.76459        1.0118107E-17
   67.89143        1.0118668E-17
   68.01828        1.0119206E-17
   68.14512        1.0119728E-17
   68.27197        1.0120240E-17
   68.39881        1.0120755E-17
   68.52565        1.0121282E-17
   68.65250        1.0121820E-17
   68.77934        1.0122363E-17
   68.90618        1.0122902E-17
   69.03303        1.0123428E-17
   69.15987        1.0123939E-17
   69.28671        1.0124438E-17
   69.41356        1.0124936E-17
   69.54041        1.0125440E-17
   69.66724        1.0125956E-17
   69.79409        1.0126481E-17
   69.92093        1.0127003E-17
   70.04778        1.0127512E-17
   70.17462        1.0127998E-17
   70.30146        1.0128459E-17
   70.42831        1.0128901E-17
   70.55515        1.0129336E-17
   70.68199        1.0129775E-17
   70.80884        1.0130225E-17
   70.93568        1.0130680E-17
   71.06252        1.0131134E-17
   71.18937        1.0131574E-17
   71.31622        1.0131992E-17
   71.44305        1.0132390E-17
   71.56990        1.0132773E-17
   71.69675        1.0133154E-17
   71.82359        1.0133545E-17
   71.95043        1.0133951E-17
   72.07728        1.0134369E-17
   72.20412        1.0134789E-17
   72.33096        1.0135202E-17
   72.45780        1.0135600E-17
   72.58465        1.0135984E-17
   72.71149        1.0136361E-17
   72.83833        1.0136744E-17
   72.96518        1.0137138E-17
   73.09203        1.0137547E-17
   73.21886        1.0137966E-17
   73.34571        1.0138383E-17
   73.47256        1.0138788E-17
   73.59940        1.0139173E-17
   73.72624        1.0139541E-17
   73.85309        1.0139900E-17
   73.97993        1.0140263E-17
   74.10677        1.0140640E-17
   74.23362        1.0141031E-17
   74.36046        1.0141431E-17
   74.48730        1.0141831E-17
   74.61415        1.0142220E-17
   74.74099        1.0142593E-17
   74.86784        1.0142955E-17
   74.99467        1.0143314E-17
   75.12152        1.0143683E-17
   75.24837        1.0144069E-17
   75.37521        1.0144472E-17
   75.50205        1.0144884E-17
   75.62890        1.0145292E-17
   75.75574        1.0145689E-17
   75.88258        1.0146067E-17
   76.00943        1.0146432E-17
   76.13627        1.0146794E-17
   76.26311        1.0147162E-17
   76.38996        1.0147544E-17
   76.51680        1.0147936E-17
   76.64365        1.0148332E-17
   76.77049        1.0148721E-17
   76.89733        1.0149093E-17
   77.02418        1.0149447E-17
   77.15102        1.0149790E-17
   77.27786        1.0150131E-17
   77.40471        1.0150480E-17
   77.53155        1.0150839E-17
   77.65839        1.0151204E-17
   77.78524        1.0151565E-17
   77.91208        1.0151910E-17
   78.03893        1.0152232E-17
   78.16577        1.0152534E-17
   78.29261        1.0152823E-17
   78.41946        1.0153114E-17
   78.54630        1.0153416E-17
   78.67314        1.0153733E-17
   78.79999        1.0154060E-17
   78.92683        1.0154385E-17
   79.05367        1.0154699E-17
   79.18052        1.0154999E-17
   79.30737        1.0155288E-17
   79.43420        1.0155576E-17
   79.56105        1.0155875E-17
   79.68790        1.0156196E-17
   79.81474        1.0156536E-17
   79.94158        1.0156890E-17
   80.06842        1.0157244E-17
   80.19527        1.0157588E-17
   80.32211        1.0157920E-17
   80.44895        1.0158243E-17
   80.57580        1.0158564E-17
   80.70264        1.0158895E-17
   80.82948        1.0159239E-17
   80.95633        1.0159594E-17
   81.08318        1.0159951E-17
   81.21001        1.0160295E-17
   81.33686        1.0160614E-17
   81.46371        1.0160908E-17
   81.59055        1.0161180E-17
   81.71739        1.0161442E-17
   81.84424        1.0161708E-17
   81.97108        1.0161981E-17
   82.09792        1.0162260E-17
   82.22476        1.0162537E-17
   82.35161        1.0162797E-17
   82.47845        1.0163036E-17
   82.60529        1.0163253E-17
   82.73214        1.0163457E-17
   82.85899        1.0163664E-17
   82.98582        1.0163886E-17
   83.11267        1.0164130E-17
   83.23952        1.0164394E-17
   83.36636        1.0164668E-17
   83.49320        1.0164942E-17
   83.62005        1.0165209E-17
   83.74689        1.0165471E-17
   83.87373        1.0165735E-17
   84.00058        1.0166014E-17
   84.12742        1.0166319E-17
   84.25426        1.0166650E-17
   84.38111        1.0167002E-17
   84.50795        1.0167361E-17
   84.63480        1.0167716E-17
   84.76163        1.0168059E-17
   84.88848        1.0168391E-17
   85.01533        1.0168722E-17
   85.14217        1.0169060E-17
   85.26901        1.0169412E-17
   85.39586        1.0169778E-17
   85.52270        1.0170146E-17
   85.64954        1.0170505E-17
   85.77639        1.0170845E-17
   85.90323        1.0171160E-17
   86.03008        1.0171455E-17
   86.15692        1.0171742E-17
   86.28376        1.0172029E-17
   86.41061        1.0172326E-17
   86.53745        1.0172632E-17
   86.66429        1.0172938E-17
   86.79114        1.0173235E-17
   86.91798        1.0173519E-17
   87.04482        1.0173790E-17
   87.17167        1.0174058E-17
   87.29851        1.0174331E-17
   87.42535        1.0174620E-17
   87.55220        1.0174926E-17
   87.67904        1.0175246E-17
   87.80589        1.0175568E-17
   87.93273        1.0175883E-17
   88.05957        1.0176184E-17
   88.18642        1.0176471E-17
   88.31326        1.0176750E-17
   88.44010        1.0177029E-17
   88.56695        1.0177316E-17
   88.69379        1.0177610E-17
   88.82063        1.0177907E-17
   88.94748        1.0178198E-17
   89.07433        1.0178473E-17
   89.20116        1.0178730E-17
   89.32801        1.0178975E-17
   89.45486        1.0179216E-17
   89.58170        1.0179464E-17
   89.70854        1.0179727E-17
   89.83538        1.0180004E-17
   89.96223        1.0180291E-17
   90.08907        1.0180578E-17
   90.21591        1.0180859E-17
   90.34276        1.0181129E-17
   90.46960        1.0181396E-17
   90.59644        1.0181664E-17
   90.72329        1.0181946E-17
   90.85014        1.0182241E-17
   90.97697        1.0182550E-17
   91.10382        1.0182863E-17
   91.23067        1.0183171E-17
   91.35751        1.0183466E-17
   91.48435        1.0183746E-17
   91.61120        1.0184017E-17
   91.73804        1.0184288E-17
   91.86488        1.0184566E-17
   91.99173        1.0184857E-17
   92.11857        1.0185158E-17
   92.24541        1.0185464E-17
   92.37225        1.0185766E-17
   92.49910        1.0186060E-17
   92.62595        1.0186346E-17
   92.75278        1.0186632E-17
   92.87963        1.0186927E-17
   93.00648        1.0187236E-17
   93.13332        1.0187564E-17
   93.26016        1.0187909E-17
   93.38701        1.0188264E-17
   93.51385        1.0188622E-17
   93.64069        1.0188978E-17
   93.76754        1.0189332E-17
   93.89438        1.0189689E-17
   94.02122        1.0190053E-17
   94.14807        1.0190431E-17
   94.27491        1.0190822E-17
   94.40176        1.0191223E-17
   94.52859        1.0191625E-17
   94.65544        1.0192020E-17
   94.78229        1.0192402E-17
   94.90913        1.0192771E-17
   95.03597        1.0193129E-17
   95.16282        1.0193484E-17
   95.28966        1.0193841E-17
   95.41650        1.0194200E-17
   95.54335        1.0194563E-17
   95.67019        1.0194921E-17
   95.79704        1.0195271E-17
   95.92388        1.0195609E-17
   96.05072        1.0195938E-17
   96.17757        1.0196263E-17
   96.30441        1.0196589E-17
   96.43125        1.0196923E-17
   96.55810        1.0197268E-17
   96.68494        1.0197619E-17
   96.81178        1.0197971E-17
   96.93863        1.0198319E-17
   97.06547        1.0198657E-17
   97.19231        1.0198989E-17
   97.31916        1.0199317E-17
   97.44600        1.0199646E-17
   97.57285        1.0199981E-17
   97.69969        1.0200318E-17
   97.82653        1.0200656E-17
   97.95338        1.0200989E-17
   98.08022        1.0201313E-17
   98.20706        1.0201627E-17
   98.33391        1.0201933E-17
   98.46075        1.0202238E-17
   98.58759        1.0202549E-17
   98.71444        1.0202869E-17
   98.84129        1.0203198E-17
   98.96812        1.0203533E-17
   99.09497        1.0203867E-17
   99.22182        1.0204198E-17
   99.34866        1.0204523E-17
   99.47550        1.0204848E-17
   99.60234        1.0205176E-17
   99.72919        1.0205514E-17
   99.85603        1.0205861E-17
   99.98287        1.0206214E-17
   100.1097        1.0206568E-17
   100.2366        1.0206915E-17
   100.3634        1.0207250E-17
   100.4902        1.0207572E-17
   100.6171        1.0207885E-17
   100.7439        1.0208195E-17
   100.8708        1.0208510E-17
   100.9976        1.0208829E-17
   101.1245        1.0209153E-17
   101.2513        1.0209478E-17
   101.3782        1.0209798E-17
   101.5050        1.0210112E-17
   101.6318        1.0210421E-17
   101.7587        1.0210732E-17
   101.8855        1.0211048E-17
   102.0124        1.0211374E-17
   102.1392        1.0211711E-17
   102.2661        1.0212053E-17
   102.3929        1.0212391E-17
   102.5197        1.0212722E-17
   102.6466        1.0213040E-17
   102.7734        1.0213348E-17
   102.9003        1.0213652E-17
   103.0271        1.0213958E-17
   103.1540        1.0214269E-17
   103.2808        1.0214585E-17
   103.4077        1.0214901E-17
   103.5345        1.0215207E-17
   103.6613        1.0215504E-17
   103.7882        1.0215791E-17
   103.9150        1.0216072E-17
   104.0419        1.0216355E-17
   104.1687        1.0216648E-17
   104.2956        1.0216954E-17
   104.4224        1.0217273E-17
   104.5492        1.0217599E-17
   104.6761        1.0217927E-17
   104.8029        1.0218253E-17
   104.9298        1.0218577E-17
   105.0566        1.0218903E-17
   105.1835        1.0219237E-17
   105.3103        1.0219584E-17
   105.4371        1.0219942E-17
   105.5640        1.0220308E-17
   105.6908        1.0220674E-17
   105.8177        1.0221035E-17
   105.9445        1.0221386E-17
   106.0714        1.0221729E-17
   106.1982        1.0222068E-17
   106.3251        1.0222407E-17
   106.4519        1.0222748E-17
   106.5787        1.0223090E-17
   106.7056        1.0223426E-17
   106.8324        1.0223754E-17
   106.9593        1.0224067E-17
   107.0861        1.0224368E-17
   107.2130        1.0224660E-17
   107.3398        1.0224950E-17
   107.4667        1.0225246E-17
   107.5935        1.0225550E-17
   107.7203        1.0225860E-17
   107.8472        1.0226173E-17
   107.9740        1.0226483E-17