  -7.200000        1.0845373E-17
  -7.073156        1.0845373E-17
  -6.946313        1.0845374E-17
  -6.819469        1.0845376E-17
  -6.692626        1.0845377E-17
  -6.565782        1.0845378E-17
  -6.438938        1.0845380E-17
  -6.312095        1.0845381E-17
  -6.185251        1.0845382E-17
  -6.058407        1.0845382E-17
  -5.931563        1.0845382E-17
  -5.804720        1.0845383E-17
  -5.677876        1.0845383E-17
  -5.551033        1.0845383E-17
  -5.424189        1.0845385E-17
  -5.297346        1.0845387E-17
  -5.170502        1.0845389E-17
  -5.043658        1.0845393E-17
  -4.916814        1.0845397E-17
  -4.789971        1.0845402E-17
  -4.663127        1.0845407E-17
  -4.536283        1.0845412E-17
  -4.409440        1.0845418E-17
  -4.282596        1.0845423E-17
  -4.155753        1.0845428E-17
  -4.028909        1.0845432E-17
  -3.902065        1.0845435E-17
  -3.775222        1.0845440E-17
  -3.648378        1.0845444E-17
  -3.521534        1.0845450E-17
  -3.394691        1.0845456E-17
  -3.267847        1.0845464E-17
  -3.141004        1.0845472E-17
  -3.014160        1.0845481E-17
  -2.887316        1.0845490E-17
  -2.760473        1.0845498E-17
  -2.633629        1.0845506E-17
  -2.506785        1.0845512E-17
  -2.379942        1.0845517E-17
  -2.253098        1.0845522E-17
  -2.126254        1.0845523E-17
  -1.999411        1.0845525E-17
  -1.872567        1.0845526E-17
  -1.745723        1.0845526E-17
  -1.618880        1.0845527E-17
  -1.492036        1.0845529E-17
  -1.365193        1.0845531E-17
  -1.238349        1.0845536E-17
  -1.111505        1.0845541E-17
 -0.9846617        1.0845545E-17
 -0.8578180        1.0845550E-17
 -0.7309744        1.0845555E-17
 -0.6041307        1.0845559E-17
 -0.4772871        1.0845563E-17
 -0.3504435        1.0845565E-17
 -0.2235998        1.0845568E-17
 -9.6756198E-02    1.0845570E-17
  3.0087441E-02    1.0845574E-17
  0.1569311        1.0845577E-17
  0.2837747        1.0845582E-17
  0.4106184        1.0845588E-17
  0.5374620        1.0845595E-17
  0.6643056        1.0845603E-17
  0.7911493        1.0845613E-17
  0.9179929        1.0845622E-17
   1.044837        1.0845632E-17
   1.171680        1.0845640E-17
   1.298524        1.0845649E-17
   1.425367        1.0845657E-17
   1.552211        1.0845665E-17
   1.679055        1.0845672E-17
   1.805898        1.0845680E-17
   1.932742        1.0845688E-17
   2.059586        1.0845696E-17
   2.186429        1.0845705E-17
   2.313273        1.0845716E-17
   2.440117        1.0845728E-17
   2.566960        1.0845741E-17
   2.693804        1.0845755E-17
   2.820647        1.0845770E-17
   2.947491        1.0845785E-17
   3.074335        1.0845799E-17
   3.201178        1.0845813E-17
   3.328022        1.0845825E-17
   3.454866        1.0845837E-17
   3.581709        1.0845848E-17
   3.708553        1.0845861E-17
   3.835397        1.0845873E-17
   3.962240        1.0845889E-17
   4.089084        1.0845906E-17
   4.215928        1.0845927E-17
   4.342771        1.0845950E-17
   4.469615        1.0845975E-17
   4.596458        1.0846002E-17
   4.723302        1.0846029E-17
   4.850146        1.0846056E-17
   4.976989        1.0846082E-17
   5.103833        1.0846104E-17
   5.230677        1.0846123E-17
   5.357520        1.0846139E-17
   5.484364        1.0846153E-17
   5.611207        1.0846163E-17
   5.738051        1.0846173E-17
   5.864895        1.0846184E-17
   5.991738        1.0846197E-17
   6.118582        1.0846211E-17
   6.245426        1.0846227E-17
   6.372270        1.0846246E-17
   6.499113        1.0846266E-17
   6.625957        1.0846287E-17
   6.752800        1.0846306E-17
   6.879644        1.0846323E-17
   7.006487        1.0846338E-17
   7.133331        1.0846351E-17
   7.260175        1.0846362E-17
   7.387019        1.0846372E-17
   7.513862        1.0846380E-17
   7.640706        1.0846389E-17
   7.767550        1.0846399E-17
   7.894393        1.0846411E-17
   8.021236        1.0846424E-17
   8.148081        1.0846437E-17
   8.274924        1.0846450E-17
   8.401768        1.0846461E-17
   8.528611        1.0846469E-17
   8.655455        1.0846474E-17
   8.782298        1.0846474E-17
   8.909142        1.0846470E-17
   9.035986        1.0846463E-17
   9.162829        1.0846453E-17
   9.289673        1.0846442E-17
   9.416516        1.0846431E-17
   9.543361        1.0846422E-17
   9.670204        1.0846415E-17
   9.797048        1.0846412E-17
   9.923891        1.0846410E-17
   10.05073        1.0846411E-17
   10.17758        1.0846412E-17
   10.30442        1.0846416E-17
   10.43127        1.0846417E-17
   10.55811        1.0846420E-17
   10.68495        1.0846420E-17
   10.81180        1.0846419E-17
   10.93864        1.0846416E-17
   11.06548        1.0846412E-17
   11.19233        1.0846409E-17
   11.31917        1.0846407E-17
   11.44602        1.0846404E-17
   11.57286        1.0846403E-17
   11.69970        1.0846402E-17
   11.82655        1.0846402E-17
   11.95339        1.0846399E-17
   12.08023        1.0846396E-17
   12.20708        1.0846388E-17
   12.33392        1.0846374E-17
   12.46076        1.0846355E-17
   12.58761        1.0846331E-17
   12.71445        1.0846300E-17
   12.84130        1.0846265E-17
   12.96814        1.0846228E-17
   13.09498        1.0846189E-17
   13.22183        1.0846151E-17
   13.34867        1.0846116E-17
   13.47551        1.0846086E-17
   13.60236        1.0846061E-17
   13.72920        1.0846042E-17
   13.85604        1.0846029E-17
   13.98289        1.0846020E-17
   14.10973        1.0846015E-17
   14.23658        1.0846014E-17
   14.36342        1.0846013E-17
   14.49026        1.0846012E-17
   14.61711        1.0846014E-17
   14.74395        1.0846018E-17
   14.87079        1.0846024E-17
   14.99764        1.0846035E-17
   15.12448        1.0846053E-17
   15.25132        1.0846075E-17
   15.37817        1.0846105E-17
   15.50501        1.0846139E-17
   15.63186        1.0846179E-17
   15.75870        1.0846221E-17
   15.88554        1.0846264E-17
   16.01239        1.0846305E-17
   16.13923        1.0846342E-17
   16.26607        1.0846375E-17
   16.39292        1.0846404E-17
   16.51976        1.0846429E-17
   16.64660        1.0846451E-17
   16.77345        1.0846473E-17
   16.90029        1.0846494E-17
   17.02714        1.0846518E-17
   17.15398        1.0846543E-17
   17.28082        1.0846570E-17
   17.40767        1.0846598E-17
   17.53451        1.0846623E-17
   17.66135        1.0846645E-17
   17.78820        1.0846660E-17
   17.91504        1.0846668E-17
   18.04188        1.0846669E-17
   18.16873        1.0846661E-17
   18.29557        1.0846647E-17
   18.42241        1.0846629E-17
   18.54926        1.0846608E-17
   18.67610        1.0846589E-17
   18.80295        1.0846570E-17
   18.92979        1.0846556E-17
   19.05663        1.0846547E-17
   19.18348        1.0846542E-17
   19.31032        1.0846541E-17
   19.43716        1.0846544E-17
   19.56401        1.0846548E-17
   19.69085        1.0846551E-17
   19.81770        1.0846555E-17
   19.94454        1.0846557E-17
   20.07138        1.0846560E-17
   20.19823        1.0846563E-17
   20.32507        1.0846568E-17
   20.45191        1.0846576E-17
   20.57876        1.0846589E-17
   20.70560        1.0846608E-17
   20.83245        1.0846629E-17
   20.95929        1.0846656E-17
   21.08613        1.0846684E-17
   21.21297        1.0846713E-17
   21.33982        1.0846742E-17
   21.46666        1.0846770E-17
   21.59351        1.0846794E-17
   21.72035        1.0846813E-17
   21.84719        1.0846828E-17
   21.97404        1.0846838E-17
   22.10088        1.0846846E-17
   22.22772        1.0846852E-17
   22.35457        1.0846857E-17
   22.48141        1.0846864E-17
   22.60826        1.0846872E-17
   22.73510        1.0846882E-17
   22.86194        1.0846894E-17
   22.98879        1.0846906E-17
   23.11563        1.0846919E-17
   23.24247        1.0846930E-17
   23.36932        1.0846940E-17
   23.49616        1.0846947E-17
   23.62300        1.0846952E-17
   23.74985        1.0846955E-17
   23.87669        1.0846959E-17
   24.00353        1.0846963E-17
   24.13038        1.0846972E-17
   24.25722        1.0846985E-17
   24.38407        1.0847003E-17
   24.51091        1.0847028E-17
   24.63775        1.0847056E-17
   24.76460        1.0847089E-17
   24.89144        1.0847122E-17
   25.01828        1.0847155E-17
   25.14513        1.0847185E-17
   25.27197        1.0847210E-17
   25.39882        1.0847230E-17
   25.52566        1.0847247E-17
   25.65250        1.0847260E-17
   25.77935        1.0847271E-17
   25.90619        1.0847282E-17
   26.03303        1.0847293E-17
   26.15988        1.0847308E-17
   26.28672        1.0847327E-17
   26.41356        1.0847349E-17
   26.54041        1.0847372E-17
   26.66725        1.0847396E-17
   26.79410        1.0847418E-17
   26.92094        1.0847437E-17
   27.04778        1.0847453E-17
   27.17463        1.0847465E-17
   27.30147        1.0847471E-17
   27.42831        1.0847474E-17
   27.55516        1.0847477E-17
   27.68200        1.0847479E-17
   27.80884        1.0847482E-17
   27.93569        1.0847488E-17
   28.06253        1.0847496E-17
   28.18937        1.0847508E-17
   28.31622        1.0847522E-17
   28.44306        1.0847536E-17
   28.56991        1.0847549E-17
   28.69675        1.0847560E-17
   28.82359        1.0847567E-17
   28.95044        1.0847569E-17
   29.07728        1.0847566E-17
   29.20412        1.0847559E-17
   29.33097        1.0847549E-17
   29.45781        1.0847537E-17
   29.58466        1.0847522E-17
   29.71150        1.0847510E-17
   29.83834        1.0847499E-17
   29.96519        1.0847490E-17
   30.09203        1.0847484E-17
   30.21887        1.0847479E-17
   30.34572        1.0847475E-17
   30.47256        1.0847473E-17
   30.59941        1.0847472E-17
   30.72625        1.0847471E-17
   30.85309        1.0847470E-17
   30.97993        1.0847470E-17
   31.10678        1.0847471E-17
   31.23362        1.0847474E-17
   31.36047        1.0847482E-17
   31.48731        1.0847494E-17
   31.61415        1.0847509E-17
   31.74100        1.0847530E-17
   31.86784        1.0847554E-17
   31.99468        1.0847582E-17
   32.12153        1.0847612E-17
   32.24837        1.0847642E-17
   32.37521        1.0847674E-17
   32.50206        1.0847704E-17
   32.62890        1.0847733E-17
   32.75574        1.0847762E-17
   32.88259        1.0847790E-17
   33.00943        1.0847818E-17
   33.13628        1.0847848E-17
   33.26312        1.0847880E-17
   33.38997        1.0847916E-17
   33.51681        1.0847956E-17
   33.64365        1.0848000E-17
   33.77050        1.0848048E-17
   33.89734        1.0848097E-17
   34.02418        1.0848149E-17
   34.15103        1.0848199E-17
   34.27787        1.0848248E-17
   34.40471        1.0848294E-17
   34.53156        1.0848337E-17
   34.65840        1.0848378E-17
   34.78524        1.0848414E-17
   34.91209        1.0848448E-17
   35.03893        1.0848481E-17
   35.16578        1.0848513E-17
   35.29262        1.0848544E-17
   35.41946        1.0848576E-17
   35.54631        1.0848609E-17
   35.67315        1.0848643E-17
   35.80000        1.0848678E-17
   35.92684        1.0848713E-17
   36.05368        1.0848748E-17
   36.18052        1.0848783E-17
   36.30737        1.0848817E-17
   36.43421        1.0848850E-17
   36.56105        1.0848882E-17
   36.68790        1.0848915E-17
   36.81474        1.0848946E-17
   36.94159        1.0848977E-17
   37.06843        1.0849010E-17
   37.19527        1.0849041E-17
   37.32212        1.0849073E-17
   37.44896        1.0849104E-17
   37.57581        1.0849136E-17
   37.70265        1.0849168E-17
   37.82949        1.0849198E-17
   37.95634        1.0849228E-17
   38.08318        1.0849258E-17
   38.21002        1.0849287E-17
   38.33687        1.0849315E-17
   38.46371        1.0849343E-17
   38.59055        1.0849371E-17
   38.71740        1.0849400E-17
   38.84424        1.0849430E-17
   38.97108        1.0849462E-17
   39.09793        1.0849495E-17
   39.22477        1.0849528E-17
   39.35162        1.0849563E-17
   39.47846        1.0849597E-17
   39.60530        1.0849629E-17
   39.73215        1.0849659E-17
   39.85899        1.0849686E-17
   39.98583        1.0849707E-17
   40.11268        1.0849724E-17
   40.23952        1.0849734E-17
   40.36636        1.0849741E-17
   40.49321        1.0849743E-17
   40.62005        1.0849744E-17
   40.74689        1.0849744E-17
   40.87374        1.0849745E-17
   41.00058        1.0849748E-17
   41.12743        1.0849753E-17
   41.25427        1.0849762E-17
   41.38111        1.0849775E-17
   41.50796        1.0849790E-17
   41.63480        1.0849806E-17
   41.76165        1.0849823E-17
   41.88849        1.0849839E-17
   42.01533        1.0849857E-17
   42.14218        1.0849873E-17
   42.26902        1.0849890E-17
   42.39586        1.0849907E-17
   42.52271        1.0849927E-17
   42.64955        1.0849949E-17
   42.77639        1.0849974E-17
   42.90324        1.0850002E-17
   43.03008        1.0850031E-17
   43.15693        1.0850062E-17
   43.28377        1.0850092E-17
   43.41061        1.0850121E-17
   43.53746        1.0850149E-17
   43.66430        1.0850174E-17
   43.79114        1.0850196E-17
   43.91799        1.0850216E-17
   44.04483        1.0850234E-17
   44.17167        1.0850252E-17
   44.29852        1.0850270E-17
   44.42536        1.0850290E-17
   44.55220        1.0850314E-17
   44.67905        1.0850341E-17
   44.80589        1.0850370E-17
   44.93274        1.0850401E-17
   45.05958        1.0850435E-17
   45.18642        1.0850468E-17
   45.31327        1.0850501E-17
   45.44011        1.0850533E-17
   45.56696        1.0850562E-17
   45.69380        1.0850587E-17
   45.82064        1.0850609E-17
   45.94748        1.0850629E-17
   46.07433        1.0850645E-17
   46.20117        1.0850661E-17
   46.32801        1.0850675E-17
   46.45486        1.0850690E-17
   46.58170        1.0850705E-17
   46.70855        1.0850724E-17
   46.83539        1.0850745E-17
   46.96223        1.0850768E-17
   47.08908        1.0850794E-17
   47.21592        1.0850820E-17
   47.34277        1.0850847E-17
   47.46961        1.0850874E-17
   47.59645        1.0850900E-17
   47.72330        1.0850923E-17
   47.85014        1.0850945E-17
   47.97698        1.0850964E-17
   48.10383        1.0850983E-17
   48.23067        1.0851002E-17
   48.35751        1.0851021E-17
   48.48436        1.0851043E-17
   48.61120        1.0851067E-17
   48.73804        1.0851094E-17
   48.86489        1.0851123E-17
   48.99173        1.0851155E-17
   49.11858        1.0851189E-17
   49.24542        1.0851224E-17
   49.37226        1.0851260E-17
   49.49911        1.0851294E-17
   49.62595        1.0851329E-17
   49.75279        1.0851363E-17
   49.87964        1.0851397E-17
   50.00648        1.0851431E-17
   50.13332        1.0851466E-17
   50.26017        1.0851502E-17
   50.38701        1.0851541E-17
   50.51385        1.0851582E-17
   50.64070        1.0851626E-17
   50.76754        1.0851672E-17
   50.89439        1.0851720E-17
   51.02123        1.0851770E-17
   51.14808        1.0851820E-17
   51.27492        1.0851868E-17
   51.40176        1.0851914E-17
   51.52861        1.0851958E-17
   51.65545        1.0851999E-17
   51.78229        1.0852039E-17
   51.90914        1.0852077E-17
   52.03598        1.0852115E-17
   52.16282        1.0852152E-17
   52.28967        1.0852190E-17
   52.41651        1.0852231E-17
   52.54335        1.0852273E-17
   52.67020        1.0852318E-17
   52.79704        1.0852364E-17
   52.92389        1.0852410E-17
   53.05073        1.0852457E-17
   53.17757        1.0852503E-17
   53.30442        1.0852547E-17
   53.43126        1.0852588E-17
   53.55810        1.0852626E-17
   53.68495        1.0852662E-17
   53.81179        1.0852695E-17
   53.93863        1.0852727E-17
   54.06548        1.0852759E-17
   54.19232        1.0852791E-17
   54.31916        1.0852824E-17
   54.44601        1.0852859E-17
   54.57285        1.0852893E-17
   54.69970        1.0852930E-17
   54.82654        1.0852966E-17
   54.95338        1.0853002E-17
   55.08023        1.0853036E-17
   55.20707        1.0853069E-17
   55.33392        1.0853099E-17
   55.46076        1.0853128E-17
   55.58760        1.0853156E-17
   55.71444        1.0853182E-17
   55.84129        1.0853209E-17
   55.96813        1.0853237E-17
   56.09497        1.0853266E-17
   56.22182        1.0853298E-17
   56.34866        1.0853330E-17
   56.47551        1.0853364E-17
   56.60235        1.0853398E-17
   56.72919        1.0853432E-17
   56.85604        1.0853463E-17
   56.98288        1.0853492E-17
   57.10973        1.0853519E-17
   57.23657        1.0853541E-17
   57.36341        1.0853562E-17
   57.49026        1.0853579E-17
   57.61710        1.0853596E-17
   57.74394        1.0853613E-17
   57.87079        1.0853631E-17
   57.99763        1.0853651E-17
   58.12447        1.0853673E-17
   58.25132        1.0853696E-17
   58.37816        1.0853721E-17
   58.50500        1.0853747E-17
   58.63185        1.0853771E-17
   58.75869        1.0853793E-17
   58.88554        1.0853812E-17
   59.01238        1.0853829E-17
   59.13923        1.0853843E-17
   59.26607        1.0853854E-17
   59.39291        1.0853864E-17
   59.51975        1.0853875E-17
   59.64660        1.0853888E-17
   59.77344        1.0853903E-17
   59.90028        1.0853922E-17
   60.02713        1.0853946E-17
   60.15397        1.0853974E-17
   60.28082        1.0854005E-17
   60.40766        1.0854039E-17
   60.53450        1.0854075E-17
   60.66135        1.0854110E-17
   60.78819        1.0854145E-17
   60.91504        1.0854178E-17
   61.04188        1.0854210E-17
   61.16872        1.0854242E-17
   61.29557        1.0854274E-17
   61.42241        1.0854308E-17
   61.54925        1.0854345E-17
   61.67610        1.0854387E-17
   61.80294        1.0854435E-17
   61.92978        1.0854490E-17
   62.05663        1.0854550E-17
   62.18347        1.0854616E-17
   62.31031        1.0854688E-17
   62.43716        1.0854764E-17
   62.56400        1.0854841E-17
   62.69085        1.0854918E-17
   62.81769        1.0854995E-17
   62.94453        1.0855071E-17
   63.07138        1.0855144E-17
   63.19822        1.0855215E-17
   63.32506        1.0855284E-17
   63.45191        1.0855350E-17
   63.57875        1.0855413E-17
   63.70559        1.0855473E-17
   63.83244        1.0855526E-17
   63.95928        1.0855573E-17
   64.08613        1.0855612E-17
   64.21297        1.0855640E-17
   64.33981        1.0855656E-17
   64.46666        1.0855656E-17
   64.59350        1.0855640E-17
   64.72034        1.0855607E-17
   64.84719        1.0855554E-17
   64.97403        1.0855484E-17
   65.10088        1.0855394E-17
   65.22771        1.0855286E-17
   65.35456        1.0855159E-17
   65.48141        1.0855014E-17
   65.60825        1.0854850E-17
   65.73509        1.0854668E-17
   65.86194        1.0854467E-17
   65.98878        1.0854247E-17
   66.11562        1.0854006E-17
   66.24247        1.0853746E-17
   66.36931        1.0853467E-17
   66.49615        1.0853169E-17
   66.62300        1.0852853E-17
   66.74984        1.0852521E-17
   66.87669        1.0852174E-17
   67.00353        1.0851812E-17
   67.13037        1.0851438E-17
   67.25722        1.0851054E-17
   67.38406        1.0850658E-17
   67.51090        1.0850252E-17
   67.63775        1.0849835E-17
   67.76459        1.0849408E-17
   67.89143        1.0848968E-17
   68.01828        1.0848517E-17
   68.14512        1.0848053E-17
   68.27197        1.0847574E-17
   68.39881        1.0847082E-17
   68.52565        1.0846575E-17
   68.65250        1.0846055E-17
   68.77934        1.0845522E-17
   68.90618        1.0844976E-17
   69.03303        1.0844421E-17
   69.15987        1.0843855E-17
   69.28671        1.0843279E-17
   69.41356        1.0842696E-17
   69.54041        1.0842104E-17
   69.66724        1.0841505E-17
   69.79409        1.0840896E-17
   69.92093        1.0840276E-17
   70.04778        1.0839646E-17
   70.17462        1.0839005E-17
   70.30146        1.0838351E-17
   70.42831        1.0837683E-17
   70.55515        1.0837005E-17
   70.68199        1.0836315E-17
   70.80884        1.0835617E-17
   70.93568        1.0834913E-17
   71.06252        1.0834206E-17
   71.18937        1.0833497E-17
   71.31622        1.0832790E-17
   71.44305        1.0832085E-17
   71.56990        1.0831384E-17
   71.69675        1.0830686E-17
   71.82359        1.0829991E-17
   71.95043        1.0829299E-17
   72.07728        1.0828609E-17
   72.20412        1.0827922E-17
   72.33096        1.0827235E-17
   72.45780        1.0826551E-17
   72.58465        1.0825870E-17
   72.71149        1.0825194E-17
   72.83833        1.0824524E-17
   72.96518        1.0823861E-17
   73.09203        1.0823207E-17
   73.21886        1.0822561E-17
   73.34571        1.0821923E-17
   73.47256        1.0821293E-17
   73.59940        1.0820671E-17
   73.72624        1.0820058E-17
   73.85309        1.0819449E-17
   73.97993        1.0818845E-17
   74.10677        1.0818244E-17
   74.23362        1.0817648E-17
   74.36046        1.0817052E-17
   74.48730        1.0816459E-17
   74.61415        1.0815865E-17
   74.74099        1.0815272E-17
   74.86784        1.0814678E-17
   74.99467        1.0814082E-17
   75.12152        1.0813486E-17
   75.24837        1.0812886E-17
   75.37521        1.0812285E-17
   75.50205        1.0811681E-17
   75.62890        1.0811074E-17
   75.75574        1.0810464E-17
   75.88258        1.0809851E-17
   76.00943        1.0809235E-17
   76.13627        1.0808616E-17
   76.26311        1.0807996E-17
   76.38996        1.0807374E-17
   76.51680        1.0806749E-17
   76.64365        1.0806125E-17
   76.77049        1.0805499E-17
   76.89733        1.0804874E-17
   77.02418        1.0804247E-17
   77.15102        1.0803620E-17
   77.27786        1.0802991E-17
   77.40471        1.0802358E-17
   77.53155        1.0801723E-17
   77.65839        1.0801083E-17
   77.78524        1.0800437E-17
   77.91208        1.0799785E-17
   78.03893        1.0799127E-17
   78.16577        1.0798463E-17
   78.29261        1.0797794E-17
   78.41946        1.0797120E-17
   78.54630        1.0796441E-17
   78.67314        1.0795758E-17
   78.79999        1.0795072E-17
   78.92683        1.0794380E-17
   79.05367        1.0793685E-17
   79.18052        1.0792985E-17
   79.30737        1.0792278E-17
   79.43420        1.0791563E-17
   79.56105        1.0790840E-17
   79.68790        1.0790108E-17
   79.81474        1.0789367E-17
   79.94158        1.0788617E-17
   80.06842        1.0787860E-17
   80.19527        1.0787098E-17
   80.32211        1.0786332E-17
   80.44895        1.0785563E-17
   80.57580        1.0784796E-17
   80.70264        1.0784030E-17
   80.82948        1.0783267E-17
   80.95633        1.0782508E-17
   81.08318        1.0781753E-17
   81.21001        1.0781001E-17
   81.33686        1.0780254E-17
   81.46371        1.0779511E-17
   81.59055        1.0778771E-17
   81.71739        1.0778034E-17
   81.84424        1.0777301E-17
   81.97108        1.0776572E-17
   82.09792        1.0775848E-17
   82.22476        1.0775130E-17
   82.35161        1.0774419E-17
   82.47845        1.0773715E-17
   82.60529        1.0773019E-17
   82.73214        1.0772333E-17
   82.85899        1.0771655E-17
   82.98582        1.0770987E-17
   83.11267        1.0770327E-17
   83.23952        1.0769677E-17
   83.36636        1.0769034E-17
   83.49320        1.0768397E-17
   83.62005        1.0767767E-17
   83.74689        1.0767141E-17
   83.87373        1.0766522E-17
   84.00058        1.0765908E-17
   84.12742        1.0765301E-17
   84.25426        1.0764701E-17
   84.38111        1.0764110E-17
   84.50795        1.0763526E-17
   84.63480        1.0762952E-17
   84.76163        1.0762389E-17
   84.88848        1.0761835E-17
   85.01533        1.0761290E-17
   85.14217        1.0760753E-17
   85.26901        1.0760223E-17
   85.39586        1.0759700E-17
   85.52270        1.0759182E-17
   85.64954        1.0758668E-17
   85.77639        1.0758158E-17
   85.90323        1.0757653E-17
   86.03008        1.0757151E-17
   86.15692        1.0756657E-17
   86.28376        1.0756168E-17
   86.41061        1.0755687E-17
   86.53745        1.0755215E-17
   86.66429        1.0754751E-17
   86.79114        1.0754293E-17
   86.91798        1.0753842E-17
   87.04482        1.0753393E-17
   87.17167        1.0752946E-17
   87.29851        1.0752496E-17
   87.42535        1.0752042E-17
   87.55220        1.0751580E-17
   87.67904        1.0751110E-17
   87.80589        1.0750628E-17
   87.93273        1.0750136E-17
   88.05957        1.0749631E-17
   88.18642        1.0749114E-17
   88.31326        1.0748586E-17
   88.44010        1.0748043E-17
   88.56695        1.0747488E-17
   88.69379        1.0746917E-17
   88.82063        1.0746330E-17
   88.94748        1.0745725E-17
   89.07433        1.0745099E-17
   89.20116        1.0744452E-17
   89.32801        1.0743782E-17
   89.45486        1.0743089E-17
   89.58170        1.0742373E-17
   89.70854        1.0741633E-17
   89.83538        1.0740872E-17
   89.96223        1.0740092E-17
   90.08907        1.0739294E-17
   90.21591        1.0738479E-17
   90.34276        1.0737646E-17
   90.46960        1.0736794E-17
   90.59644        1.0735926E-17
   90.72329        1.0735037E-17
   90.85014        1.0734127E-17
   90.97697        1.0733195E-17
   91.10382        1.0732237E-17
   91.23067        1.0731259E-17
   91.35751        1.0730257E-17
   91.48435        1.0729237E-17
   91.61120        1.0728200E-17
   91.73804        1.0727150E-17
   91.86488        1.0726090E-17
   91.99173        1.0725022E-17
   92.11857        1.0723947E-17
   92.24541        1.0722866E-17
   92.37225        1.0721778E-17
   92.49910        1.0720679E-17
   92.62595        1.0719569E-17
   92.75278        1.0718445E-17
   92.87963        1.0717305E-17
   93.00648        1.0716150E-17
   93.13332        1.0714977E-17
   93.26016        1.0713790E-17
   93.38701        1.0712590E-17
   93.51385        1.0711382E-17
   93.64069        1.0710167E-17
   93.76754        1.0708952E-17
   93.89438        1.0707739E-17
   94.02122        1.0706530E-17
   94.14807        1.0705328E-17
   94.27491        1.0704133E-17
   94.40176        1.0702947E-17
   94.52859        1.0701769E-17
   94.65544        1.0700599E-17
   94.78229        1.0699435E-17
   94.90913        1.0698278E-17
   95.03597        1.0697128E-17
   95.16282        1.0695982E-17
   95.28966        1.0694843E-17
   95.41650        1.0693709E-17
   95.54335        1.0692582E-17
   95.67019        1.0691462E-17
   95.79704        1.0690347E-17
   95.92388        1.0689238E-17
   96.05072        1.0688135E-17
   96.17757        1.0687034E-17
   96.30441        1.0685935E-17
   96.43125        1.0684836E-17
   96.55810        1.0683733E-17
   96.68494        1.0682627E-17
   96.81178        1.0681517E-17
   96.93863        1.0680403E-17
   97.06547        1.0679286E-17
   97.19231        1.0678168E-17
   97.31916        1.0677050E-17
   97.44600        1.0675936E-17
   97.57285        1.0674826E-17
   97.69969        1.0673724E-17
   97.82653        1.0672628E-17
   97.95338        1.0671537E-17
   98.08022        1.0670452E-17
   98.20706        1.0669370E-17
   98.33391        1.0668290E-17
   98.46075        1.0667210E-17
   98.58759        1.0666129E-17
   98.71444        1.0665050E-17
   98.84129        1.0663972E-17
   98.96812        1.0662899E-17
   99.09497        1.0661833E-17
   99.22182        1.0660776E-17
   99.34866        1.0659729E-17
   99.47550        1.0658695E-17
   99.60234        1.0657668E-17
   99.72919        1.0656650E-17
   99.85603        1.0655636E-17
   99.98287        1.0654623E-17
   100.1097        1.0653608E-17
   100.2366        1.0652587E-17
   100.3634        1.0651557E-17
   100.4902        1.0650519E-17
   100.6171        1.0649473E-17
   100.7439        1.0648418E-17
   100.8708        1.0647357E-17
   100.9976        1.0646289E-17
   101.1245        1.0645215E-17
   101.2513        1.0644133E-17
   101.3782        1.0643043E-17
   101.5050        1.0641942E-17
   101.6318        1.0640827E-17
   101.7587        1.0639696E-17
   101.8855        1.0638547E-17
   102.0124        1.0637378E-17
   102.1392        1.0636189E-17
   102.2661        1.0634978E-17
   102.3929        1.0633747E-17
   102.5197        1.0632496E-17
   102.6466        1.0631226E-17
   102.7734        1.0629939E-17
   102.9003        1.0628638E-17
   103.0271        1.0627323E-17
   103.1540        1.0625996E-17
   103.2808        1.0624660E-17
   103.4077        1.0623316E-17
   103.5345        1.0621966E-17
   103.6613        1.0620612E-17
   103.7882        1.0619255E-17
   103.9150        1.0617895E-17
   104.0419        1.0616536E-17
   104.1687        1.0615177E-17
   104.2956        1.0613822E-17
   104.4224        1.0612470E-17
   104.5492        1.0611127E-17
   104.6761        1.0609793E-17
   104.8029        1.0608474E-17
   104.9298        1.0607172E-17
   105.0566        1.0605891E-17
   105.1835        1.0604632E-17
   105.3103        1.0603402E-17
   105.4371        1.0602198E-17
   105.5640        1.0601023E-17
   105.6908        1.0599875E-17
   105.8177        1.0598755E-17
   105.9445        1.0597660E-17
   106.0714        1.0596591E-17
   106.1982        1.0595548E-17
   106.3251        1.0594529E-17
   106.4519        1.0593535E-17
   106.5787        1.0592567E-17
   106.7056        1.0591624E-17
   106.8324        1.0590705E-17
   106.9593        1.0589809E-17
   107.0861        1.0588933E-17
   107.2130        1.0588075E-17
   107.3398        1.0587229E-17
   107.4667        1.0586393E-17
   107.5935        1.0585563E-17
   107.7203        1.0584737E-17
   107.8472        1.0583912E-17
   107.9740        1.0583087E-17