  -7.200000        1.9050412E-18
  -7.073156        1.9050389E-18
  -6.946313        1.9050348E-18
  -6.819469        1.9050294E-18
  -6.692626        1.9050222E-18
  -6.565782        1.9050141E-18
  -6.438938        1.9050050E-18
  -6.312095        1.9049965E-18
  -6.185251        1.9049881E-18
  -6.058407        1.9049802E-18
  -5.931563        1.9049730E-18
  -5.804720        1.9049670E-18
  -5.677876        1.9049618E-18
  -5.551033        1.9049581E-18
  -5.424189        1.9049558E-18
  -5.297346        1.9049550E-18
  -5.170502        1.9049550E-18
  -5.043658        1.9049562E-18
  -4.916814        1.9049581E-18
  -4.789971        1.9049603E-18
  -4.663127        1.9049624E-18
  -4.536283        1.9049645E-18
  -4.409440        1.9049651E-18
  -4.282596        1.9049651E-18
  -4.155753        1.9049641E-18
  -4.028909        1.9049610E-18
  -3.902065        1.9049562E-18
  -3.775222        1.9049500E-18
  -3.648378        1.9049417E-18
  -3.521534        1.9049318E-18
  -3.394691        1.9049202E-18
  -3.267847        1.9049074E-18
  -3.141004        1.9048938E-18
  -3.014160        1.9048797E-18
  -2.887316        1.9048652E-18
  -2.760473        1.9048512E-18
  -2.633629        1.9048373E-18
  -2.506785        1.9048251E-18
  -2.379942        1.9048148E-18
  -2.253098        1.9048063E-18
  -2.126254        1.9047999E-18
  -1.999411        1.9047955E-18
  -1.872567        1.9047935E-18
  -1.745723        1.9047933E-18
  -1.618880        1.9047943E-18
  -1.492036        1.9047970E-18
  -1.365193        1.9048003E-18
  -1.238349        1.9048042E-18
  -1.111505        1.9048088E-18
 -0.9846617        1.9048125E-18
 -0.8578180        1.9048158E-18
 -0.7309744        1.9048179E-18
 -0.6041307        1.9048191E-18
 -0.4772871        1.9048193E-18
 -0.3504435        1.9048175E-18
 -0.2235998        1.9048148E-18
 -9.6756198E-02    1.9048104E-18
  3.0087441E-02    1.9048050E-18
  0.1569311        1.9047997E-18
  0.2837747        1.9047939E-18
  0.4106184        1.9047887E-18
  0.5374620        1.9047848E-18
  0.6643056        1.9047827E-18
  0.7911493        1.9047829E-18
  0.9179929        1.9047854E-18
   1.044837        1.9047912E-18
   1.171680        1.9047999E-18
   1.298524        1.9048112E-18
   1.425367        1.9048251E-18
   1.552211        1.9048414E-18
   1.679055        1.9048594E-18
   1.805898        1.9048785E-18
   1.932742        1.9048975E-18
   2.059586        1.9049161E-18
   2.186429        1.9049339E-18
   2.313273        1.9049500E-18
   2.440117        1.9049637E-18
   2.566960        1.9049750E-18
   2.693804        1.9049833E-18
   2.820647        1.9049897E-18
   2.947491        1.9049936E-18
   3.074335        1.9049953E-18
   3.201178        1.9049953E-18
   3.328022        1.9049941E-18
   3.454866        1.9049922E-18
   3.581709        1.9049901E-18
   3.708553        1.9049881E-18
   3.835397        1.9049866E-18
   3.962240        1.9049862E-18
   4.089084        1.9049874E-18
   4.215928        1.9049903E-18
   4.342771        1.9049949E-18
   4.469615        1.9050015E-18
   4.596458        1.9050102E-18
   4.723302        1.9050205E-18
   4.850146        1.9050327E-18
   4.976989        1.9050464E-18
   5.103833        1.9050611E-18
   5.230677        1.9050768E-18
   5.357520        1.9050929E-18
   5.484364        1.9051097E-18
   5.611207        1.9051262E-18
   5.738051        1.9051417E-18
   5.864895        1.9051558E-18
   5.991738        1.9051688E-18
   6.118582        1.9051804E-18
   6.245426        1.9051901E-18
   6.372270        1.9051980E-18
   6.499113        1.9052044E-18
   6.625957        1.9052093E-18
   6.752800        1.9052126E-18
   6.879644        1.9052151E-18
   7.006487        1.9052172E-18
   7.133331        1.9052184E-18
   7.260175        1.9052193E-18
   7.387019        1.9052209E-18
   7.513862        1.9052238E-18
   7.640706        1.9052273E-18
   7.767550        1.9052319E-18
   7.894393        1.9052383E-18
   8.021236        1.9052463E-18
   8.148081        1.9052567E-18
   8.274924        1.9052683E-18
   8.401768        1.9052809E-18
   8.528611        1.9052949E-18
   8.655455        1.9053094E-18
   8.782298        1.9053241E-18
   8.909142        1.9053386E-18
   9.035986        1.9053518E-18
   9.162829        1.9053646E-18
   9.289673        1.9053760E-18
   9.416516        1.9053859E-18
   9.543361        1.9053948E-18
   9.670204        1.9054023E-18
   9.797048        1.9054087E-18
   9.923891        1.9054141E-18
   10.05073        1.9054190E-18
   10.17758        1.9054242E-18
   10.30442        1.9054302E-18
   10.43127        1.9054366E-18
   10.55811        1.9054436E-18
   10.68495        1.9054523E-18
   10.81180        1.9054612E-18
   10.93864        1.9054720E-18
   11.06548        1.9054842E-18
   11.19233        1.9054978E-18
   11.31917        1.9055127E-18
   11.44602        1.9055288E-18
   11.57286        1.9055460E-18
   11.69970        1.9055636E-18
   11.82655        1.9055820E-18
   11.95339        1.9055998E-18
   12.08023        1.9056175E-18
   12.20708        1.9056337E-18
   12.33392        1.9056477E-18
   12.46076        1.9056599E-18
   12.58761        1.9056686E-18
   12.71445        1.9056742E-18
   12.84130        1.9056761E-18
   12.96814        1.9056736E-18
   13.09498        1.9056676E-18
   13.22183        1.9056570E-18
   13.34867        1.9056430E-18
   13.47551        1.9056256E-18
   13.60236        1.9056062E-18
   13.72920        1.9055849E-18
   13.85604        1.9055625E-18
   13.98289        1.9055408E-18
   14.10973        1.9055206E-18
   14.23658        1.9055028E-18
   14.36342        1.9054881E-18
   14.49026        1.9054780E-18
   14.61711        1.9054722E-18
   14.74395        1.9054718E-18
   14.87079        1.9054759E-18
   14.99764        1.9054852E-18
   15.12448        1.9054990E-18
   15.25132        1.9055168E-18
   15.37817        1.9055377E-18
   15.50501        1.9055609E-18
   15.63186        1.9055847E-18
   15.75870        1.9056087E-18
   15.88554        1.9056320E-18
   16.01239        1.9056529E-18
   16.13923        1.9056707E-18
   16.26607        1.9056856E-18
   16.39292        1.9056963E-18
   16.51976        1.9057036E-18
   16.64660        1.9057073E-18
   16.77345        1.9057073E-18
   16.90029        1.9057044E-18
   17.02714        1.9056984E-18
   17.15398        1.9056910E-18
   17.28082        1.9056825E-18
   17.40767        1.9056736E-18
   17.53451        1.9056651E-18
   17.66135        1.9056572E-18
   17.78820        1.9056510E-18
   17.91504        1.9056461E-18
   18.04188        1.9056432E-18
   18.16873        1.9056411E-18
   18.29557        1.9056407E-18
   18.42241        1.9056413E-18
   18.54926        1.9056422E-18
   18.67610        1.9056442E-18
   18.80295        1.9056457E-18
   18.92979        1.9056463E-18
   19.05663        1.9056459E-18
   19.18348        1.9056446E-18
   19.31032        1.9056411E-18
   19.43716        1.9056359E-18
   19.56401        1.9056283E-18
   19.69085        1.9056184E-18
   19.81770        1.9056055E-18
   19.94454        1.9055902E-18
   20.07138        1.9055735E-18
   20.19823        1.9055547E-18
   20.32507        1.9055346E-18
   20.45191        1.9055133E-18
   20.57876        1.9054916E-18
   20.70560        1.9054701E-18
   20.83245        1.9054494E-18
   20.95929        1.9054300E-18
   21.08613        1.9054132E-18
   21.21297        1.9053992E-18
   21.33982        1.9053890E-18
   21.46666        1.9053828E-18
   21.59351        1.9053816E-18
   21.72035        1.9053849E-18
   21.84719        1.9053921E-18
   21.97404        1.9054039E-18
   22.10088        1.9054192E-18
   22.22772        1.9054372E-18
   22.35457        1.9054569E-18
   22.48141        1.9054773E-18
   22.60826        1.9054972E-18
   22.73510        1.9055156E-18
   22.86194        1.9055311E-18
   22.98879        1.9055431E-18
   23.11563        1.9055507E-18
   23.24247        1.9055539E-18
   23.36932        1.9055522E-18
   23.49616        1.9055470E-18
   23.62300        1.9055373E-18
   23.74985        1.9055243E-18
   23.87669        1.9055098E-18
   24.00353        1.9054935E-18
   24.13038        1.9054777E-18
   24.25722        1.9054624E-18
   24.38407        1.9054502E-18
   24.51091        1.9054409E-18
   24.63775        1.9054354E-18
   24.76460        1.9054341E-18
   24.89144        1.9054374E-18
   25.01828        1.9054442E-18
   25.14513        1.9054544E-18
   25.27197        1.9054674E-18
   25.39882        1.9054809E-18
   25.52566        1.9054941E-18
   25.65250        1.9055067E-18
   25.77935        1.9055154E-18
   25.90619        1.9055206E-18
   26.03303        1.9055206E-18
   26.15988        1.9055162E-18
   26.28672        1.9055063E-18
   26.41356        1.9054918E-18
   26.54041        1.9054734E-18
   26.66725        1.9054529E-18
   26.79410        1.9054310E-18
   26.92094        1.9054097E-18
   27.04778        1.9053894E-18
   27.17463        1.9053723E-18
   27.30147        1.9053584E-18
   27.42831        1.9053485E-18
   27.55516        1.9053425E-18
   27.68200        1.9053406E-18
   27.80884        1.9053427E-18
   27.93569        1.9053483E-18
   28.06253        1.9053566E-18
   28.18937        1.9053673E-18
   28.31622        1.9053799E-18
   28.44306        1.9053934E-18
   28.56991        1.9054072E-18
   28.69675        1.9054205E-18
   28.82359        1.9054331E-18
   28.95044        1.9054442E-18
   29.07728        1.9054531E-18
   29.20412        1.9054598E-18
   29.33097        1.9054631E-18
   29.45781        1.9054629E-18
   29.58466        1.9054589E-18
   29.71150        1.9054517E-18
   29.83834        1.9054405E-18
   29.96519        1.9054263E-18
   30.09203        1.9054093E-18
   30.21887        1.9053899E-18
   30.34572        1.9053698E-18
   30.47256        1.9053497E-18
   30.59941        1.9053309E-18
   30.72625        1.9053144E-18
   30.85309        1.9053018E-18
   30.97993        1.9052935E-18
   31.10678        1.9052906E-18
   31.23362        1.9052927E-18
   31.36047        1.9053007E-18
   31.48731        1.9053140E-18
   31.61415        1.9053322E-18
   31.74100        1.9053543E-18
   31.86784        1.9053791E-18
   31.99468        1.9054060E-18
   32.12153        1.9054331E-18
   32.24837        1.9054589E-18
   32.37521        1.9054821E-18
   32.50206        1.9055022E-18
   32.62890        1.9055177E-18
   32.75574        1.9055276E-18
   32.88259        1.9055317E-18
   33.00943        1.9055303E-18
   33.13628        1.9055237E-18
   33.26312        1.9055123E-18
   33.38997        1.9054964E-18
   33.51681        1.9054773E-18
   33.64365        1.9054567E-18
   33.77050        1.9054358E-18
   33.89734        1.9054159E-18
   34.02418        1.9053975E-18
   34.15103        1.9053830E-18
   34.27787        1.9053723E-18
   34.40471        1.9053663E-18
   34.53156        1.9053644E-18
   34.65840        1.9053677E-18
   34.78524        1.9053758E-18
   34.91209        1.9053888E-18
   35.03893        1.9054058E-18
   35.16578        1.9054267E-18
   35.29262        1.9054505E-18
   35.41946        1.9054765E-18
   35.54631        1.9055038E-18
   35.67315        1.9055313E-18
   35.80000        1.9055582E-18
   35.92684        1.9055842E-18
   36.05368        1.9056082E-18
   36.18052        1.9056295E-18
   36.30737        1.9056467E-18
   36.43421        1.9056597E-18
   36.56105        1.9056678E-18
   36.68790        1.9056707E-18
   36.81474        1.9056688E-18
   36.94159        1.9056618E-18
   37.06843        1.9056508E-18
   37.19527        1.9056359E-18
   37.32212        1.9056196E-18
   37.44896        1.9056016E-18
   37.57581        1.9055842E-18
   37.70265        1.9055679E-18
   37.82949        1.9055539E-18
   37.95634        1.9055435E-18
   38.08318        1.9055369E-18
   38.21002        1.9055340E-18
   38.33687        1.9055348E-18
   38.46371        1.9055388E-18
   38.59055        1.9055454E-18
   38.71740        1.9055532E-18
   38.84424        1.9055613E-18
   38.97108        1.9055694E-18
   39.09793        1.9055764E-18
   39.22477        1.9055811E-18
   39.35162        1.9055842E-18
   39.47846        1.9055847E-18
   39.60530        1.9055830E-18
   39.73215        1.9055795E-18
   39.85899        1.9055749E-18
   39.98583        1.9055706E-18
   40.11268        1.9055656E-18
   40.23952        1.9055625E-18
   40.36636        1.9055598E-18
   40.49321        1.9055601E-18
   40.62005        1.9055623E-18
   40.74689        1.9055677E-18
   40.87374        1.9055760E-18
   41.00058        1.9055869E-18
   41.12743        1.9056010E-18
   41.25427        1.9056163E-18
   41.38111        1.9056331E-18
   41.50796        1.9056502E-18
   41.63480        1.9056672E-18
   41.76165        1.9056833E-18
   41.88849        1.9056984E-18
   42.01533        1.9057120E-18
   42.14218        1.9057240E-18
   42.26902        1.9057342E-18
   42.39586        1.9057422E-18
   42.52271        1.9057493E-18
   42.64955        1.9057557E-18
   42.77639        1.9057615E-18
   42.90324        1.9057656E-18
   43.03008        1.9057691E-18
   43.15693        1.9057722E-18
   43.28377        1.9057745E-18
   43.41061        1.9057753E-18
   43.53746        1.9057751E-18
   43.66430        1.9057739E-18
   43.79114        1.9057714E-18
   43.91799        1.9057671E-18
   44.04483        1.9057611E-18
   44.17167        1.9057538E-18
   44.29852        1.9057466E-18
   44.42536        1.9057389E-18
   44.55220        1.9057321E-18
   44.67905        1.9057269E-18
   44.80589        1.9057238E-18
   44.93274        1.9057240E-18
   45.05958        1.9057282E-18
   45.18642        1.9057371E-18
   45.31327        1.9057503E-18
   45.44011        1.9057681E-18
   45.56696        1.9057906E-18
   45.69380        1.9058161E-18
   45.82064        1.9058440E-18
   45.94748        1.9058736E-18
   46.07433        1.9059023E-18
   46.20117        1.9059292E-18
   46.32801        1.9059530E-18
   46.45486        1.9059722E-18
   46.58170        1.9059865E-18
   46.70855        1.9059945E-18
   46.83539        1.9059966E-18
   46.96223        1.9059929E-18
   47.08908        1.9059850E-18
   47.21592        1.9059730E-18
   47.34277        1.9059604E-18
   47.46961        1.9059478E-18
   47.59645        1.9059370E-18
   47.72330        1.9059298E-18
   47.85014        1.9059273E-18
   47.97698        1.9059319E-18
   48.10383        1.9059428E-18
   48.23067        1.9059610E-18
   48.35751        1.9059856E-18
   48.48436        1.9060158E-18
   48.61120        1.9060506E-18
   48.73804        1.9060874E-18
   48.86489        1.9061250E-18
   48.99173        1.9061620E-18
   49.11858        1.9061957E-18
   49.24542        1.9062259E-18
   49.37226        1.9062507E-18
   49.49911        1.9062700E-18
   49.62595        1.9062824E-18
   49.75279        1.9062892E-18
   49.87964        1.9062900E-18
   50.00648        1.9062867E-18
   50.13332        1.9062797E-18
   50.26017        1.9062712E-18
   50.38701        1.9062621E-18
   50.51385        1.9062539E-18
   50.64070        1.9062474E-18
   50.76754        1.9062429E-18
   50.89439        1.9062417E-18
   51.02123        1.9062437E-18
   51.14808        1.9062497E-18
   51.27492        1.9062592E-18
   51.40176        1.9062731E-18
   51.52861        1.9062894E-18
   51.65545        1.9063093E-18
   51.78229        1.9063314E-18
   51.90914        1.9063556E-18
   52.03598        1.9063814E-18
   52.16282        1.9064083E-18
   52.28967        1.9064365E-18
   52.41651        1.9064642E-18
   52.54335        1.9064917E-18
   52.67020        1.9065183E-18
   52.79704        1.9065436E-18
   52.92389        1.9065663E-18
   53.05073        1.9065866E-18
   53.17757        1.9066037E-18
   53.30442        1.9066180E-18
   53.43126        1.9066288E-18
   53.55810        1.9066360E-18
   53.68495        1.9066395E-18
   53.81179        1.9066399E-18
   53.93863        1.9066379E-18
   54.06548        1.9066344E-18
   54.19232        1.9066290E-18
   54.31916        1.9066230E-18
   54.44601        1.9066174E-18
   54.57285        1.9066133E-18
   54.69970        1.9066110E-18
   54.82654        1.9066116E-18
   54.95338        1.9066147E-18
   55.08023        1.9066207E-18
   55.20707        1.9066300E-18
   55.33392        1.9066414E-18
   55.46076        1.9066554E-18
   55.58760        1.9066712E-18
   55.71444        1.9066885E-18
   55.84129        1.9067061E-18
   55.96813        1.9067239E-18
   56.09497        1.9067419E-18
   56.22182        1.9067588E-18
   56.34866        1.9067748E-18
   56.47551        1.9067890E-18
   56.60235        1.9068014E-18
   56.72919        1.9068116E-18
   56.85604        1.9068194E-18
   56.98288        1.9068244E-18
   57.10973        1.9068265E-18
   57.23657        1.9068263E-18
   57.36341        1.9068236E-18
   57.49026        1.9068184E-18
   57.61710        1.9068116E-18
   57.74394        1.9068041E-18
   57.87079        1.9067969E-18
   57.99763        1.9067901E-18
   58.12447        1.9067843E-18
   58.25132        1.9067812E-18
   58.37816        1.9067804E-18
   58.50500        1.9067828E-18
   58.63185        1.9067876E-18
   58.75869        1.9067948E-18
   58.88554        1.9068035E-18
   59.01238        1.9068139E-18
   59.13923        1.9068242E-18
   59.26607        1.9068333E-18
   59.39291        1.9068397E-18
   59.51975        1.9068430E-18
   59.64660        1.9068422E-18
   59.77344        1.9068366E-18
   59.90028        1.9068258E-18
   60.02713        1.9068108E-18
   60.15397        1.9067913E-18
   60.28082        1.9067694E-18
   60.40766        1.9067448E-18
   60.53450        1.9067204E-18
   60.66135        1.9066970E-18
   60.78819        1.9066767E-18
   60.91504        1.9066600E-18
   61.04188        1.9066488E-18
   61.16872        1.9066443E-18
   61.29557        1.9066478E-18
   61.42241        1.9066596E-18
   61.54925        1.9066796E-18
   61.67610        1.9067078E-18
   61.80294        1.9067442E-18
   61.92978        1.9067884E-18
   62.05663        1.9068395E-18
   62.18347        1.9068966E-18
   62.31031        1.9069584E-18
   62.43716        1.9070242E-18
   62.56400        1.9070930E-18
   62.69085        1.9071629E-18
   62.81769        1.9072334E-18
   62.94453        1.9073027E-18
   63.07138        1.9073693E-18
   63.19822        1.9074322E-18
   63.32506        1.9074895E-18
   63.45191        1.9075401E-18
   63.57875        1.9075833E-18
   63.70559        1.9076175E-18
   63.83244        1.9076414E-18
   63.95928        1.9076553E-18
   64.08613        1.9076576E-18
   64.21297        1.9076479E-18
   64.33981        1.9076251E-18
   64.46666        1.9075885E-18
   64.59350        1.9075370E-18
   64.72034        1.9074704E-18
   64.84719        1.9073879E-18
   64.97403        1.9072884E-18
   65.10088        1.9071712E-18
   65.22771        1.9070345E-18
   65.35456        1.9068775E-18
   65.48141        1.9066989E-18
   65.60825        1.9064975E-18
   65.73509        1.9062720E-18
   65.86194        1.9060222E-18
   65.98878        1.9057478E-18
   66.11562        1.9054484E-18
   66.24247        1.9051237E-18
   66.36931        1.9047746E-18
   66.49615        1.9044012E-18
   66.62300        1.9040047E-18
   66.74984        1.9035874E-18
   66.87669        1.9031494E-18
   67.00353        1.9026924E-18
   67.13037        1.9022182E-18
   67.25722        1.9017273E-18
   67.38406        1.9012209E-18
   67.51090        1.9007000E-18
   67.63775        1.9001648E-18
   67.76459        1.8996159E-18
   67.89143        1.8990524E-18
   68.01828        1.8984744E-18
   68.14512        1.8978820E-18
   68.27197        1.8972742E-18
   68.39881        1.8966497E-18
   68.52565        1.8960082E-18
   68.65250        1.8953489E-18
   68.77934        1.8946713E-18
   68.90618        1.8939750E-18
   69.03303        1.8932599E-18
   69.15987        1.8925255E-18
   69.28671        1.8917724E-18
   69.41356        1.8910002E-18
   69.54041        1.8902096E-18
   69.66724        1.8894015E-18
   69.79409        1.8885768E-18
   69.92093        1.8877358E-18
   70.04778        1.8868790E-18
   70.17462        1.8860080E-18
   70.30146        1.8851225E-18
   70.42831        1.8842233E-18
   70.55515        1.8833114E-18
   70.68199        1.8823862E-18
   70.80884        1.8814482E-18
   70.93568        1.8804983E-18
   71.06252        1.8795367E-18
   71.18937        1.8785629E-18
   71.31622        1.8775782E-18
   71.44305        1.8765833E-18
   71.56990        1.8755787E-18
   71.69675        1.8745660E-18
   71.82359        1.8735451E-18
   71.95043        1.8725175E-18
   72.07728        1.8714846E-18
   72.20412        1.8704475E-18
   72.33096        1.8694067E-18
   72.45780        1.8683632E-18
   72.58465        1.8673174E-18
   72.71149        1.8662696E-18
   72.83833        1.8652197E-18
   72.96518        1.8641683E-18
   73.09203        1.8631151E-18
   73.21886        1.8620599E-18
   73.34571        1.8610031E-18
   73.47256        1.8599448E-18
   73.59940        1.8588851E-18
   73.72624        1.8578239E-18
   73.85309        1.8567620E-18
   73.97993        1.8556991E-18
   74.10677        1.8546355E-18
   74.23362        1.8535720E-18
   74.36046        1.8525076E-18
   74.48730        1.8514424E-18
   74.61415        1.8503753E-18
   74.74099        1.8493058E-18
   74.86784        1.8482327E-18
   74.99467        1.8471543E-18
   75.12152        1.8460692E-18
   75.24837        1.8449765E-18
   75.37521        1.8438749E-18
   75.50205        1.8427622E-18
   75.62890        1.8416376E-18
   75.75574        1.8404996E-18
   75.88258        1.8393488E-18
   76.00943        1.8381837E-18
   76.13627        1.8370050E-18
   76.26311        1.8358134E-18
   76.38996        1.8346101E-18
   76.51680        1.8333964E-18
   76.64365        1.8321734E-18
   76.77049        1.8309428E-18
   76.89733        1.8297061E-18
   77.02418        1.8284656E-18
   77.15102        1.8272217E-18
   77.27786        1.8259764E-18
   77.40471        1.8247304E-18
   77.53155        1.8234837E-18
   77.65839        1.8222369E-18
   77.78524        1.8209897E-18
   77.91208        1.8197423E-18
   78.03893        1.8184927E-18
   78.16577        1.8172407E-18
   78.29261        1.8159855E-18
   78.41946        1.8147267E-18
   78.54630        1.8134628E-18
   78.67314        1.8121937E-18
   78.79999        1.8109188E-18
   78.92683        1.8096377E-18
   79.05367        1.8083506E-18
   79.18052        1.8070569E-18
   79.30737        1.8057570E-18
   79.43420        1.8044517E-18
   79.56105        1.8031410E-18
   79.68790        1.8018248E-18
   79.81474        1.8005040E-18
   79.94158        1.7991790E-18
   80.06842        1.7978489E-18
   80.19527        1.7965149E-18
   80.32211        1.7951771E-18
   80.44895        1.7938346E-18
   80.57580        1.7924880E-18
   80.70264        1.7911370E-18
   80.82948        1.7897829E-18
   80.95633        1.7884245E-18
   81.08318        1.7870627E-18
   81.21001        1.7856979E-18
   81.33686        1.7843312E-18
   81.46371        1.7829620E-18
   81.59055        1.7815911E-18
   81.71739        1.7802190E-18
   81.84424        1.7788463E-18
   81.97108        1.7774724E-18
   82.09792        1.7760980E-18
   82.22476        1.7747224E-18
   82.35161        1.7733454E-18
   82.47845        1.7719675E-18
   82.60529        1.7705878E-18
   82.73214        1.7692072E-18
   82.85899        1.7678256E-18
   82.98582        1.7664432E-18
   83.11267        1.7650620E-18
   83.23952        1.7636820E-18
   83.36636        1.7623054E-18
   83.49320        1.7609333E-18
   83.62005        1.7595676E-18
   83.74689        1.7582100E-18
   83.87373        1.7568626E-18
   84.00058        1.7555256E-18
   84.12742        1.7542013E-18
   84.25426        1.7528902E-18
   84.38111        1.7515924E-18
   84.50795        1.7503088E-18
   84.63480        1.7490391E-18
   84.76163        1.7477832E-18
   84.88848        1.7465410E-18
   85.01533        1.7453110E-18
   85.14217        1.7440927E-18
   85.26901        1.7428855E-18
   85.39586        1.7416881E-18
   85.52270        1.7405007E-18
   85.64954        1.7393207E-18
   85.77639        1.7381490E-18
   85.90323        1.7369840E-18
   86.03008        1.7358255E-18
   86.15692        1.7346735E-18
   86.28376        1.7335271E-18
   86.41061        1.7323858E-18
   86.53745        1.7312492E-18
   86.66429        1.7301170E-18
   86.79114        1.7289898E-18
   86.91798        1.7278660E-18
   87.04482        1.7267460E-18
   87.17167        1.7256291E-18
   87.29851        1.7245165E-18
   87.42535        1.7234062E-18
   87.55220        1.7222985E-18
   87.67904        1.7211936E-18
   87.80589        1.7200909E-18
   87.93273        1.7189884E-18
   88.05957        1.7178868E-18
   88.18642        1.7167850E-18
   88.31326        1.7156822E-18
   88.44010        1.7145774E-18
   88.56695        1.7134700E-18
   88.69379        1.7123588E-18
   88.82063        1.7112428E-18
   88.94748        1.7101204E-18
   89.07433        1.7089914E-18
   89.20116        1.7078549E-18
   89.32801        1.7067104E-18
   89.45486        1.7055569E-18
   89.58170        1.7043944E-18
   89.70854        1.7032228E-18
   89.83538        1.7020424E-18
   89.96223        1.7008533E-18
   90.08907        1.6996563E-18
   90.21591        1.6984526E-18
   90.34276        1.6972427E-18
   90.46960        1.6960276E-18
   90.59644        1.6948089E-18
   90.72329        1.6935874E-18
   90.85014        1.6923648E-18
   90.97697        1.6911421E-18
   91.10382        1.6899201E-18
   91.23067        1.6886998E-18
   91.35751        1.6874816E-18
   91.48435        1.6862659E-18
   91.61120        1.6850545E-18
   91.73804        1.6838468E-18
   91.86488        1.6826439E-18
   91.99173        1.6814449E-18
   92.11857        1.6802504E-18
   92.24541        1.6790611E-18
   92.37225        1.6778768E-18
   92.49910        1.6766984E-18
   92.62595        1.6755247E-18
   92.75278        1.6743566E-18
   92.87963        1.6731943E-18
   93.00648        1.6720372E-18
   93.13332        1.6708855E-18
   93.26016        1.6697391E-18
   93.38701        1.6685991E-18
   93.51385        1.6674658E-18
   93.64069        1.6663390E-18
   93.76754        1.6652205E-18
   93.89438        1.6641110E-18
   94.02122        1.6630123E-18
   94.14807        1.6619251E-18
   94.27491        1.6608509E-18
   94.40176        1.6597898E-18
   94.52859        1.6587439E-18
   94.65544        1.6577132E-18
   94.78229        1.6566972E-18
   94.90913        1.6556955E-18
   95.03597        1.6547067E-18
   95.16282        1.6537291E-18
   95.28966        1.6527600E-18
   95.41650        1.6517974E-18
   95.54335        1.6508378E-18
   95.67019        1.6498787E-18
   95.79704        1.6489179E-18
   95.92388        1.6479523E-18
   96.05072        1.6469805E-18
   96.17757        1.6460008E-18
   96.30441        1.6450122E-18
   96.43125        1.6440142E-18
   96.55810        1.6430068E-18
   96.68494        1.6419910E-18
   96.81178        1.6409673E-18
   96.93863        1.6399367E-18
   97.06547        1.6389002E-18
   97.19231        1.6378593E-18
   97.31916        1.6368150E-18
   97.44600        1.6357675E-18
   97.57285        1.6347180E-18
   97.69969        1.6336665E-18
   97.82653        1.6326123E-18
   97.95338        1.6315553E-18
   98.08022        1.6304960E-18
   98.20706        1.6294334E-18
   98.33391        1.6283679E-18
   98.46075        1.6272991E-18
   98.58759        1.6262265E-18
   98.71444        1.6251515E-18
   98.84129        1.6240743E-18
   98.96812        1.6229969E-18
   99.09497        1.6219198E-18
   99.22182        1.6208449E-18
   99.34866        1.6197747E-18
   99.47550        1.6187117E-18
   99.60234        1.6176576E-18
   99.72919        1.6166145E-18
   99.85603        1.6155842E-18
   99.98287        1.6145688E-18
   100.1097        1.6135684E-18
   100.2366        1.6125850E-18
   100.3634        1.6116175E-18
   100.4902        1.6106657E-18
   100.6171        1.6097288E-18
   100.7439        1.6088055E-18
   100.8708        1.6078939E-18
   100.9976        1.6069921E-18
   101.1245        1.6060979E-18
   101.2513        1.6052091E-18
   101.3782        1.6043234E-18
   101.5050        1.6034387E-18
   101.6318        1.6025531E-18
   101.7587        1.6016648E-18
   101.8855        1.6007714E-18
   102.0124        1.5998713E-18
   102.1392        1.5989621E-18
   102.2661        1.5980432E-18
   102.3929        1.5971125E-18
   102.5197        1.5961679E-18
   102.6466        1.5952087E-18
   102.7734        1.5942337E-18
   102.9003        1.5932420E-18
   103.0271        1.5922313E-18
   103.1540        1.5912026E-18
   103.2808        1.5901545E-18
   103.4077        1.5890880E-18
   103.5345        1.5880031E-18
   103.6613        1.5869002E-18
   103.7882        1.5857812E-18
   103.9150        1.5846478E-18
   104.0419        1.5835014E-18
   104.1687        1.5823447E-18
   104.2956        1.5811798E-18
   104.4224        1.5800107E-18
   104.5492        1.5788405E-18
   104.6761        1.5776718E-18
   104.8029        1.5765093E-18
   104.9298        1.5753565E-18
   105.0566        1.5742173E-18
   105.1835        1.5730955E-18
   105.3103        1.5719941E-18
   105.4371        1.5709175E-18
   105.5640        1.5698673E-18
   105.6908        1.5688470E-18
   105.8177        1.5678580E-18
   105.9445        1.5669011E-18
   106.0714        1.5659777E-18
   106.1982        1.5650870E-18
   106.3251        1.5642291E-18
   106.4519        1.5634031E-18
   106.5787        1.5626077E-18
   106.7056        1.5618405E-18
   106.8324        1.5611001E-18
   106.9593        1.5603843E-18
   107.0861        1.5596902E-18
   107.2130        1.5590150E-18
   107.3398        1.5583560E-18
   107.4667        1.5577109E-18
   107.5935        1.5570767E-18
   107.7203        1.5564496E-18
   107.8472        1.5558282E-18
   107.9740        1.5552089E-18