  -7.200000        9.9185842E-19
  -7.073156        9.9186597E-19
  -6.946313        9.9187910E-19
  -6.819469        9.9189585E-19
  -6.692626        9.9191415E-19
  -6.565782        9.9193162E-19
  -6.438938        9.9194734E-19
  -6.312095        9.9195954E-19
  -6.185251        9.9196719E-19
  -6.058407        9.9197122E-19
  -5.931563        9.9197174E-19
  -5.804720        9.9196926E-19
  -5.677876        9.9196626E-19
  -5.551033        9.9196378E-19
  -5.424189        9.9196440E-19
  -5.297346        9.9196833E-19
  -5.170502        9.9197753E-19
  -5.043658        9.9199139E-19
  -4.916814        9.9201020E-19
  -4.789971        9.9203244E-19
  -4.663127        9.9205642E-19
  -4.536283        9.9208062E-19
  -4.409440        9.9210295E-19
  -4.282596        9.9212249E-19
  -4.155753        9.9213914E-19
  -4.028909        9.9215310E-19
  -3.902065        9.9216468E-19
  -3.775222        9.9217616E-19
  -3.648378        9.9218898E-19
  -3.521534        9.9220563E-19
  -3.394691        9.9222703E-19
  -3.267847        9.9225329E-19
  -3.141004        9.9228566E-19
  -3.014160        9.9232257E-19
  -2.887316        9.9236238E-19
  -2.760473        9.9240343E-19
  -2.633629        9.9244385E-19
  -2.506785        9.9248056E-19
  -2.379942        9.9251261E-19
  -2.253098        9.9253960E-19
  -2.126254        9.9256152E-19
  -1.999411        9.9257993E-19
  -1.872567        9.9259585E-19
  -1.745723        9.9261167E-19
  -1.618880        9.9262863E-19
  -1.492036        9.9264848E-19
  -1.365193        9.9267164E-19
  -1.238349        9.9269821E-19
  -1.111505        9.9272716E-19
 -0.9846617        9.9275777E-19
 -0.8578180        9.9278796E-19
 -0.7309744        9.9281526E-19
 -0.6041307        9.9283842E-19
 -0.4772871        9.9285610E-19
 -0.3504435        9.9286871E-19
 -0.2235998        9.9287606E-19
 -9.6756198E-02    9.9287957E-19
  3.0087441E-02    9.9288143E-19
  0.1569311        9.9288360E-19
  0.2837747        9.9288764E-19
  0.4106184        9.9289529E-19
  0.5374620        9.9290728E-19
  0.6643056        9.9292352E-19
  0.7911493        9.9294420E-19
  0.9179929        9.9296808E-19
   1.044837        9.9299341E-19
   1.171680        9.9301802E-19
   1.298524        9.9304067E-19
   1.425367        9.9306052E-19
   1.552211        9.9307634E-19
   1.679055        9.9308875E-19
   1.805898        9.9309784E-19
   1.932742        9.9310488E-19
   2.059586        9.9311191E-19
   2.186429        9.9311987E-19
   2.313273        9.9313052E-19
   2.440117        9.9314510E-19
   2.566960        9.9316371E-19
   2.693804        9.9318635E-19
   2.820647        9.9321241E-19
   2.947491        9.9323940E-19
   3.074335        9.9326638E-19
   3.201178        9.9329202E-19
   3.328022        9.9331519E-19
   3.454866        9.9333483E-19
   3.581709        9.9335200E-19
   3.708553        9.9336616E-19
   3.835397        9.9337888E-19
   3.962240        9.9339139E-19
   4.089084        9.9340566E-19
   4.215928        9.9342241E-19
   4.342771        9.9344288E-19
   4.469615        9.9346646E-19
   4.596458        9.9349396E-19
   4.723302        9.9352353E-19
   4.850146        9.9355507E-19
   4.976989        9.9358702E-19
   5.103833        9.9361752E-19
   5.230677        9.9364575E-19
   5.357520        9.9367129E-19
   5.484364        9.9369341E-19
   5.611207        9.9371213E-19
   5.738051        9.9372826E-19
   5.864895        9.9374253E-19
   5.991738        9.9375494E-19
   6.118582        9.9376734E-19
   6.245426        9.9378016E-19
   6.372270        9.9379371E-19
   6.499113        9.9380870E-19
   6.625957        9.9382576E-19
   6.752800        9.9384365E-19
   6.879644        9.9386175E-19
   7.006487        9.9388005E-19
   7.133331        9.9389783E-19
   7.260175        9.9391448E-19
   7.387019        9.9392988E-19
   7.513862        9.9394457E-19
   7.640706        9.9395863E-19
   7.767550        9.9397300E-19
   7.894393        9.9398892E-19
   8.021236        9.9400816E-19
   8.148081        9.9403152E-19
   8.274924        9.9406006E-19
   8.401768        9.9409553E-19
   8.528611        9.9413699E-19
   8.655455        9.9418435E-19
   8.782298        9.9423698E-19
   8.909142        9.9429384E-19
   9.035986        9.9435175E-19
   9.162829        9.9440934E-19
   9.289673        9.9446383E-19
   9.416516        9.9451336E-19
   9.543361        9.9455596E-19
   9.670204        9.9459153E-19
   9.797048        9.9461955E-19
   9.923891        9.9464126E-19
   10.05073        9.9465749E-19
   10.17758        9.9466990E-19
   10.30442        9.9468086E-19
   10.43127        9.9469130E-19
   10.55811        9.9470206E-19
   10.68495        9.9471333E-19
   10.81180        9.9472563E-19
   10.93864        9.9473742E-19
   11.06548        9.9474910E-19
   11.19233        9.9475893E-19
   11.31917        9.9476616E-19
   11.44602        9.9476978E-19
   11.57286        9.9477051E-19
   11.69970        9.9476958E-19
   11.82655        9.9476885E-19
   11.95339        9.9476968E-19
   12.08023        9.9477454E-19
   12.20708        9.9478509E-19
   12.33392        9.9480308E-19
   12.46076        9.9482934E-19
   12.58761        9.9486336E-19
   12.71445        9.9490513E-19
   12.84130        9.9495156E-19
   12.96814        9.9500057E-19
   13.09498        9.9505071E-19
   13.22183        9.9509983E-19
   13.34867        9.9514646E-19
   13.47551        9.9519040E-19
   13.60236        9.9523125E-19
   13.72920        9.9526971E-19
   13.85604        9.9530807E-19
   13.98289        9.9534747E-19
   14.10973        9.9538893E-19
   14.23658        9.9543370E-19
   14.36342        9.9548188E-19
   14.49026        9.9553296E-19
   14.61711        9.9558621E-19
   14.74395        9.9564049E-19
   14.87079        9.9569374E-19
   14.99764        9.9574451E-19
   15.12448        9.9579114E-19
   15.25132        9.9583312E-19
   15.37817        9.9586973E-19
   15.50501        9.9590147E-19
   15.63186        9.9592959E-19
   15.75870        9.9595513E-19
   15.88554        9.9597943E-19
   16.01239        9.9600404E-19
   16.13923        9.9602917E-19
   16.26607        9.9605543E-19
   16.39292        9.9608169E-19
   16.51976        9.9610785E-19
   16.64660        9.9613153E-19
   16.77345        9.9615262E-19
   16.90029        9.9616886E-19
   17.02714        9.9617940E-19
   17.15398        9.9618488E-19
   17.28082        9.9618633E-19
   17.40767        9.9618457E-19
   17.53451        9.9618168E-19
   17.66135        9.9617971E-19
   17.78820        9.9618023E-19
   17.91504        9.9618499E-19
   18.04188        9.9619584E-19
   18.16873        9.9621208E-19
   18.29557        9.9623451E-19
   18.42241        9.9626222E-19
   18.54926        9.9629407E-19
   18.67610        9.9632912E-19
   18.80295        9.9636634E-19
   18.92979        9.9640419E-19
   19.05663        9.9644183E-19
   19.18348        9.9647884E-19
   19.31032        9.9651493E-19
   19.43716        9.9655039E-19
   19.56401        9.9658596E-19
   19.69085        9.9662184E-19
   19.81770        9.9665906E-19
   19.94454        9.9669722E-19
   20.07138        9.9673651E-19
   20.19823        9.9677756E-19
   20.32507        9.9681850E-19
   20.45191        9.9685903E-19
   20.57876        9.9689843E-19
   20.70560        9.9693472E-19
   20.83245        9.9696677E-19
   20.95929        9.9699469E-19
   21.08613        9.9701775E-19
   21.21297        9.9703615E-19
   21.33982        9.9705073E-19
   21.46666        9.9706149E-19
   21.59351        9.9706986E-19
   21.72035        9.9707772E-19
   21.84719        9.9708620E-19
   21.97404        9.9709633E-19
   22.10088        9.9710926E-19
   22.22772        9.9712539E-19
   22.35457        9.9714503E-19
   22.48141        9.9716757E-19
   22.60826        9.9719259E-19
   22.73510        9.9721958E-19
   22.86194        9.9724605E-19
   22.98879        9.9727252E-19
   23.11563        9.9729672E-19
   23.24247        9.9731977E-19
   23.36932        9.9734107E-19
   23.49616        9.9736093E-19
   23.62300        9.9738036E-19
   23.74985        9.9740022E-19
   23.87669        9.9742079E-19
   24.00353        9.9744282E-19
   24.13038        9.9746639E-19
   24.25722        9.9749234E-19
   24.38407        9.9752037E-19
   24.51091        9.9755014E-19
   24.63775        9.9758158E-19
   24.76460        9.9761373E-19
   24.89144        9.9764610E-19
   25.01828        9.9767732E-19
   25.14513        9.9770627E-19
   25.27197        9.9773316E-19
   25.39882        9.9775673E-19
   25.52566        9.9777617E-19
   25.65250        9.9779199E-19
   25.77935        9.9780450E-19
   25.90619        9.9781391E-19
   26.03303        9.9782156E-19
   26.15988        9.9782818E-19
   26.28672        9.9783438E-19
   26.41356        9.9784079E-19
   26.54041        9.9784793E-19
   26.66725        9.9785548E-19
   26.79410        9.9786302E-19
   26.92094        9.9787057E-19
   27.04778        9.9787781E-19
   27.17463        9.9788515E-19
   27.30147        9.9789229E-19
   27.42831        9.9790045E-19
   27.55516        9.9791131E-19
   27.68200        9.9792579E-19
   27.80884        9.9794616E-19
   27.93569        9.9797283E-19
   28.06253        9.9800613E-19
   28.18937        9.9804604E-19
   28.31622        9.9809205E-19
   28.44306        9.9814230E-19
   28.56991        9.9819359E-19
   28.69675        9.9824322E-19
   28.82359        9.9828933E-19
   28.95044        9.9832914E-19
   29.07728        9.9836119E-19
   29.20412        9.9838446E-19
   29.33097        9.9839986E-19
   29.45781        9.9840793E-19
   29.58466        9.9841134E-19
   29.71150        9.9841186E-19
   29.83834        9.9841289E-19
   29.96519        9.9841579E-19
   30.09203        9.9842199E-19
   30.21887        9.9843244E-19
   30.34572        9.9844608E-19
   30.47256        9.9846232E-19
   30.59941        9.9847938E-19
   30.72625        9.9849623E-19
   30.85309        9.9851040E-19
   30.97993        9.9852136E-19
   31.10678        9.9852777E-19
   31.23362        9.9853066E-19
   31.36047        9.9853004E-19
   31.48731        9.9852746E-19
   31.61415        9.9852436E-19
   31.74100        9.9852353E-19
   31.86784        9.9852653E-19
   31.99468        9.9853532E-19
   32.12153        9.9855083E-19
   32.24837        9.9857337E-19
   32.37521        9.9860252E-19
   32.50206        9.9863675E-19
   32.62890        9.9867335E-19
   32.75574        9.9871016E-19
   32.88259        9.9874439E-19
   33.00943        9.9877551E-19
   33.13628        9.9880239E-19
   33.26312        9.9882617E-19
   33.38997        9.9884675E-19
   33.51681        9.9886702E-19
   33.64365        9.9888873E-19
   33.77050        9.9891385E-19
   33.89734        9.9894415E-19
   34.02418        9.9897962E-19
   34.15103        9.9902056E-19
   34.27787        9.9906512E-19
   34.40471        9.9911103E-19
   34.53156        9.9915570E-19
   34.65840        9.9919685E-19
   34.78524        9.9923222E-19
   34.91209        9.9926024E-19
   35.03893        9.9928009E-19
   35.16578        9.9929301E-19
   35.29262        9.9929973E-19
   35.41946        9.9930294E-19
   35.54631        9.9930408E-19
   35.67315        9.9930532E-19
   35.80000        9.9930801E-19
   35.92684        9.9931369E-19
   36.05368        9.9932155E-19
   36.18052        9.9933086E-19
   36.30737        9.9934068E-19
   36.43421        9.9935019E-19
   36.56105        9.9935836E-19
   36.68790        9.9936529E-19
   36.81474        9.9937118E-19
   36.94159        9.9937770E-19
   37.06843        9.9938576E-19
   37.19527        9.9939631E-19
   37.32212        9.9941202E-19
   37.44896        9.9943436E-19
   37.57581        9.9946341E-19
   37.70265        9.9950053E-19
   37.82949        9.9954458E-19
   37.95634        9.9959421E-19
   38.08318        9.9964736E-19
   38.21002        9.9970205E-19
   38.33687        9.9975551E-19
   38.46371        9.9980411E-19
   38.59055        9.9984753E-19
   38.71740        9.9988300E-19
   38.84424        9.9991019E-19
   38.97108        9.9992912E-19
   39.09793        9.9993945E-19
   39.22477        9.9994307E-19
   39.35162        9.9994204E-19
   39.47846        9.9993718E-19
   39.60530        9.9993180E-19
   39.73215        9.9992684E-19
   39.85899        9.9992332E-19
   39.98583        9.9992198E-19
   40.11268        9.9992374E-19
   40.23952        9.9992829E-19
   40.36636        9.9993449E-19
   40.49321        9.9994152E-19
   40.62005        9.9994855E-19
   40.74689        9.9995610E-19
   40.87374        9.9996448E-19
   41.00058        9.9997440E-19
   41.12743        9.9998722E-19
   41.25427        1.0000043E-18
   41.38111        1.0000269E-18
   41.50796        1.0000557E-18
   41.63480        1.0000909E-18
   41.76165        1.0001320E-18
   41.88849        1.0001786E-18
   42.01533        1.0002286E-18
   42.14218        1.0002803E-18
   42.26902        1.0003315E-18
   42.39586        1.0003795E-18
   42.52271        1.0004236E-18
   42.64955        1.0004622E-18
   42.77639        1.0004957E-18
   42.90324        1.0005240E-18
   43.03008        1.0005476E-18
   43.15693        1.0005688E-18
   43.28377        1.0005879E-18
   43.41061        1.0006051E-18
   43.53746        1.0006217E-18
   43.66430        1.0006368E-18
   43.79114        1.0006507E-18
   43.91799        1.0006623E-18
   44.04483        1.0006712E-18
   44.17167        1.0006771E-18
   44.29852        1.0006797E-18
   44.42536        1.0006795E-18
   44.55220        1.0006768E-18
   44.67905        1.0006723E-18
   44.80589        1.0006676E-18
   44.93274        1.0006642E-18
   45.05958        1.0006629E-18
   45.18642        1.0006656E-18
   45.31327        1.0006737E-18
   45.44011        1.0006873E-18
   45.56696        1.0007075E-18
   45.69380        1.0007342E-18
   45.82064        1.0007668E-18
   45.94748        1.0008040E-18
   46.07433        1.0008447E-18
   46.20117        1.0008885E-18
   46.32801        1.0009339E-18
   46.45486        1.0009797E-18
   46.58170        1.0010239E-18
   46.70855        1.0010650E-18
   46.83539        1.0011022E-18
   46.96223        1.0011357E-18
   47.08908        1.0011646E-18
   47.21592        1.0011894E-18
   47.34277        1.0012100E-18
   47.46961        1.0012277E-18
   47.59645        1.0012438E-18
   47.72330        1.0012595E-18
   47.85014        1.0012759E-18
   47.97698        1.0012943E-18
   48.10383        1.0013146E-18
   48.23067        1.0013378E-18
   48.35751        1.0013624E-18
   48.48436        1.0013888E-18
   48.61120        1.0014155E-18
   48.73804        1.0014421E-18
   48.86489        1.0014685E-18
   48.99173        1.0014933E-18
   49.11858        1.0015164E-18
   49.24542        1.0015381E-18
   49.37226        1.0015592E-18
   49.49911        1.0015799E-18
   49.62595        1.0016007E-18
   49.75279        1.0016230E-18
   49.87964        1.0016468E-18
   50.00648        1.0016722E-18
   50.13332        1.0016980E-18
   50.26017        1.0017233E-18
   50.38701        1.0017473E-18
   50.51385        1.0017680E-18
   50.64070        1.0017845E-18
   50.76754        1.0017960E-18
   50.89439        1.0018025E-18
   51.02123        1.0018050E-18
   51.14808        1.0018051E-18
   51.27492        1.0018043E-18
   51.40176        1.0018055E-18
   51.52861        1.0018098E-18
   51.65545        1.0018195E-18
   51.78229        1.0018352E-18
   51.90914        1.0018573E-18
   52.03598        1.0018843E-18
   52.16282        1.0019163E-18
   52.28967        1.0019500E-18
   52.41651        1.0019835E-18
   52.54335        1.0020151E-18
   52.67020        1.0020424E-18
   52.79704        1.0020654E-18
   52.92389        1.0020836E-18
   53.05073        1.0020983E-18
   53.17757        1.0021113E-18
   53.30442        1.0021247E-18
   53.43126        1.0021399E-18
   53.55810        1.0021575E-18
   53.68495        1.0021798E-18
   53.81179        1.0022061E-18
   53.93863        1.0022365E-18
   54.06548        1.0022702E-18
   54.19232        1.0023051E-18
   54.31916        1.0023397E-18
   54.44601        1.0023736E-18
   54.57285        1.0024049E-18
   54.69970        1.0024331E-18
   54.82654        1.0024594E-18
   54.95338        1.0024833E-18
   55.08023        1.0025065E-18
   55.20707        1.0025299E-18
   55.33392        1.0025546E-18
   55.46076        1.0025814E-18
   55.58760        1.0026112E-18
   55.71444        1.0026449E-18
   55.84129        1.0026818E-18
   55.96813        1.0027200E-18
   56.09497        1.0027587E-18
   56.22182        1.0027958E-18
   56.34866        1.0028303E-18
   56.47551        1.0028601E-18
   56.60235        1.0028845E-18
   56.72919        1.0029032E-18
   56.85604        1.0029155E-18
   56.98288        1.0029230E-18
   57.10973        1.0029267E-18
   57.23657        1.0029287E-18
   57.36341        1.0029302E-18
   57.49026        1.0029333E-18
   57.61710        1.0029401E-18
   57.74394        1.0029511E-18
   57.87079        1.0029669E-18
   57.99763        1.0029865E-18
   58.12447        1.0030080E-18
   58.25132        1.0030306E-18
   58.37816        1.0030532E-18
   58.50500        1.0030745E-18
   58.63185        1.0030938E-18
   58.75869        1.0031123E-18
   58.88554        1.0031310E-18
   59.01238        1.0031513E-18
   59.13923        1.0031751E-18
   59.26607        1.0032030E-18
   59.39291        1.0032356E-18
   59.51975        1.0032732E-18
   59.64660        1.0033131E-18
   59.77344        1.0033538E-18
   59.90028        1.0033928E-18
   60.02713        1.0034270E-18
   60.15397        1.0034535E-18
   60.28082        1.0034718E-18
   60.40766        1.0034812E-18
   60.53450        1.0034832E-18
   60.66135        1.0034796E-18
   60.78819        1.0034723E-18
   60.91504        1.0034640E-18
   61.04188        1.0034581E-18
   61.16872        1.0034566E-18
   61.29557        1.0034613E-18
   61.42241        1.0034723E-18
   61.54925        1.0034893E-18
   61.67610        1.0035114E-18
   61.80294        1.0035378E-18
   61.92978        1.0035665E-18
   62.05663        1.0035965E-18
   62.18347        1.0036273E-18
   62.31031        1.0036593E-18
   62.43716        1.0036918E-18
   62.56400        1.0037260E-18
   62.69085        1.0037624E-18
   62.81769        1.0038008E-18
   62.94453        1.0038415E-18
   63.07138        1.0038842E-18
   63.19822        1.0039276E-18
   63.32506        1.0039709E-18
   63.45191        1.0040124E-18
   63.57875        1.0040521E-18
   63.70559        1.0040885E-18
   63.83244        1.0041206E-18
   63.95928        1.0041487E-18
   64.08613        1.0041726E-18
   64.21297        1.0041920E-18
   64.33981        1.0042075E-18
   64.46666        1.0042189E-18
   64.59350        1.0042267E-18
   64.72034        1.0042311E-18
   64.84719        1.0042331E-18
   64.97403        1.0042331E-18
   65.10088        1.0042308E-18
   65.22771        1.0042278E-18
   65.35456        1.0042240E-18
   65.48141        1.0042206E-18
   65.60825        1.0042170E-18
   65.73509        1.0042135E-18
   65.86194        1.0042099E-18
   65.98878        1.0042056E-18
   66.11562        1.0041995E-18
   66.24247        1.0041927E-18
   66.36931        1.0041841E-18
   66.49615        1.0041750E-18
   66.62300        1.0041645E-18
   66.74984        1.0041527E-18
   66.87669        1.0041399E-18
   67.00353        1.0041272E-18
   67.13037        1.0041141E-18
   67.25722        1.0041005E-18
   67.38406        1.0040872E-18
   67.51090        1.0040733E-18
   67.63775        1.0040581E-18
   67.76459        1.0040414E-18
   67.89143        1.0040227E-18
   68.01828        1.0040018E-18
   68.14512        1.0039772E-18
   68.27197        1.0039491E-18
   68.39881        1.0039167E-18
   68.52565        1.0038796E-18
   68.65250        1.0038361E-18
   68.77934        1.0037869E-18
   68.90618        1.0037307E-18
   69.03303        1.0036683E-18
   69.15987        1.0035984E-18
   69.28671        1.0035218E-18
   69.41356        1.0034386E-18
   69.54041        1.0033501E-18
   69.66724        1.0032572E-18
   69.79409        1.0031601E-18
   69.92093        1.0030597E-18
   70.04778        1.0029557E-18
   70.17462        1.0028482E-18
   70.30146        1.0027370E-18
   70.42831        1.0026216E-18
   70.55515        1.0025012E-18
   70.68199        1.0023756E-18
   70.80884        1.0022446E-18
   70.93568        1.0021082E-18
   71.06252        1.0019673E-18
   71.18937        1.0018227E-18
   71.31622        1.0016754E-18
   71.44305        1.0015269E-18
   71.56990        1.0013774E-18
   71.69675        1.0012277E-18
   71.82359        1.0010772E-18
   71.95043        1.0009246E-18
   72.07728        1.0007691E-18
   72.20412        1.0006087E-18
   72.33096        1.0004431E-18
   72.45780        1.0002702E-18
   72.58465        1.0000901E-18
   72.71149        9.9990265E-19
   72.83833        9.9970909E-19
   72.96518        9.9950973E-19
   73.09203        9.9930697E-19
   73.21886        9.9910204E-19
   73.34571        9.9889638E-19
   73.47256        9.9869052E-19
   73.59940        9.9848579E-19
   73.72624        9.9828251E-19
   73.85309        9.9807954E-19
   73.97993        9.9787657E-19
   74.10677        9.9767205E-19
   74.23362        9.9746577E-19
   74.36046        9.9725629E-19
   74.48730        9.9704329E-19
   74.61415        9.9682812E-19
   74.74099        9.9661005E-19
   74.86784        9.9639054E-19
   74.99467        9.9617041E-19
   75.12152        9.9595017E-19
   75.24837        9.9573024E-19
   75.37521        9.9551083E-19
   75.50205        9.9529122E-19
   75.62890        9.9506933E-19
   75.75574        9.9484568E-19
   75.88258        9.9461748E-19
   76.00943        9.9438390E-19
   76.13627        9.9414268E-19
   76.26311        9.9389359E-19
   76.38996        9.9363603E-19
   76.51680        9.9336968E-19
   76.64365        9.9309536E-19
   76.77049        9.9281319E-19
   76.89733        9.9252430E-19
   77.02418        9.9223065E-19
   77.15102        9.9193369E-19
   77.27786        9.9163332E-19
   77.40471        9.9133150E-19
   77.53155        9.9102710E-19
   77.65839        9.9072187E-19
   77.78524        9.9041509E-19
   77.91208        9.9010707E-19
   78.03893        9.8979667E-19
   78.16577        9.8948431E-19
   78.29261        9.8916998E-19
   78.41946        9.8885389E-19
   78.54630        9.8853656E-19
   78.67314        9.8821769E-19
   78.79999        9.8789757E-19
   78.92683        9.8757641E-19
   79.05367        9.8725443E-19
   79.18052        9.8693163E-19
   79.30737        9.8660841E-19
   79.43420        9.8628425E-19
   79.56105        9.8595917E-19
   79.68790        9.8563357E-19
   79.81474        9.8530694E-19
   79.94158        9.8497917E-19
   80.06842        9.8464964E-19
   80.19527        9.8431784E-19
   80.32211        9.8398376E-19
   80.44895        9.8364669E-19
   80.57580        9.8330785E-19
   80.70264        9.8296633E-19
   80.82948        9.8262315E-19
   80.95633        9.8227842E-19
   81.08318        9.8193297E-19
   81.21001        9.8158701E-19
   81.33686        9.8124062E-19
   81.46371        9.8089466E-19
   81.59055        9.8054869E-19
   81.71739        9.8020231E-19
   81.84424        9.7985437E-19
   81.97108        9.7950499E-19
   82.09792        9.7915220E-19
   82.22476        9.7879527E-19
   82.35161        9.7843338E-19
   82.47845        9.7806673E-19
   82.60529        9.7769481E-19
   82.73214        9.7731689E-19
   82.85899        9.7693370E-19
   82.98582        9.7654575E-19
   83.11267        9.7615408E-19
   83.23952        9.7575817E-19
   83.36636        9.7535916E-19
   83.49320        9.7495870E-19
   83.62005        9.7455649E-19
   83.74689        9.7415334E-19
   83.87373        9.7375061E-19
   84.00058        9.7334880E-19
   84.12742        9.7294824E-19
   84.25426        9.7255047E-19
   84.38111        9.7215487E-19
   84.50795        9.7176175E-19
   84.63480        9.7137091E-19
   84.76163        9.7098234E-19
   84.88848        9.7059698E-19
   85.01533        9.7021369E-19
   85.14217        9.6983453E-19
   85.26901        9.6945878E-19
   85.39586        9.6908758E-19
   85.52270        9.6871969E-19
   85.64954        9.6835656E-19
   85.77639        9.6799674E-19
   85.90323        9.6763929E-19
   86.03008        9.6728350E-19
   86.15692        9.6692761E-19
   86.28376        9.6657151E-19
   86.41061        9.6621334E-19
   86.53745        9.6585238E-19
   86.66429        9.6548873E-19
   86.79114        9.6512229E-19
   86.91798        9.6475336E-19
   87.04482        9.6438330E-19
   87.17167        9.6401262E-19
   87.29851        9.6364236E-19
   87.42535        9.6327343E-19
   87.55220        9.6290596E-19
   87.67904        9.6253921E-19
   87.80589        9.6217328E-19
   87.93273        9.6180664E-19
   88.05957        9.6143854E-19
   88.18642        9.6106776E-19
   88.31326        9.6069387E-19
   88.44010        9.6031688E-19
   88.56695        9.5993741E-19
   88.69379        9.5955660E-19
   88.82063        9.5917558E-19
   88.94748        9.5879528E-19
   89.07433        9.5841778E-19
   89.20116        9.5804286E-19
   89.32801        9.5767022E-19
   89.45486        9.5730016E-19
   89.58170        9.5693134E-19
   89.70854        9.5656272E-19
   89.83538        9.5619297E-19
   89.96223        9.5582229E-19
   90.08907        9.5545089E-19
   90.21591        9.5507824E-19
   90.34276        9.5470550E-19
   90.46960        9.5433378E-19
   90.59644        9.5396445E-19
   90.72329        9.5359883E-19
   90.85014        9.5323756E-19
   90.97697        9.5288187E-19
   91.10382        9.5253218E-19
   91.23067        9.5218735E-19
   91.35751        9.5184728E-19
   91.48435        9.5151093E-19
   91.61120        9.5117716E-19
   91.73804        9.5084546E-19
   91.86488        9.5051510E-19
   91.99173        9.5018464E-19
   92.11857        9.4985470E-19
   92.24541        9.4952383E-19
   92.37225        9.4919306E-19
   92.49910        9.4886281E-19
   92.62595        9.4853276E-19
   92.75278        9.4820437E-19
   92.87963        9.4787650E-19
   93.00648        9.4754863E-19
   93.13332        9.4721982E-19
   93.26016        9.4688998E-19
   93.38701        9.4655787E-19
   93.51385        9.4622317E-19
   93.64069        9.4588444E-19
   93.76754        9.4554189E-19
   93.89438        9.4519457E-19
   94.02122        9.4484416E-19
   94.14807        9.4449064E-19
   94.27491        9.4413516E-19
   94.40176        9.4377968E-19
   94.52859        9.4342534E-19
   94.65544        9.4307193E-19
   94.78229        9.4272058E-19
   94.90913        9.4237296E-19
   95.03597        9.4202864E-19
   95.16282        9.4168764E-19
   95.28966        9.4135015E-19
   95.41650        9.4101638E-19
   95.54335        9.4068489E-19
   95.67019        9.4035495E-19
   95.79704        9.4002645E-19
   95.92388        9.3969920E-19
   96.05072        9.3937174E-19
   96.17757        9.3904490E-19
   96.30441        9.3871827E-19
   96.43125        9.3839163E-19
   96.55810        9.3806510E-19
   96.68494        9.3773754E-19
   96.81178        9.3741008E-19
   96.93863        9.3708128E-19
   97.06547        9.3675071E-19
   97.19231        9.3641891E-19
   97.31916        9.3608514E-19
   97.44600        9.3574993E-19
   97.57285        9.3541306E-19
   97.69969        9.3507402E-19
   97.82653        9.3473322E-19
   97.95338        9.3439035E-19
   98.08022        9.3404625E-19
   98.20706        9.3370100E-19
   98.33391        9.3335524E-19
   98.46075        9.3301124E-19
   98.58759        9.3267044E-19
   98.71444        9.3233512E-19
   98.84129        9.3200611E-19
   98.96812        9.3168537E-19
   99.09497        9.3137228E-19
   99.22182        9.3106747E-19
   99.34866        9.3076958E-19
   99.47550        9.3047738E-19
   99.60234        9.3018859E-19
   99.72919        9.2990228E-19
   99.85603        9.2961597E-19
   99.98287        9.2932832E-19
   100.1097        9.2903788E-19
   100.2366        9.2874381E-19
   100.3634        9.2844623E-19
   100.4902        9.2814421E-19
   100.6171        9.2783898E-19
   100.7439        9.2753086E-19
   100.8708        9.2722190E-19
   100.9976        9.2691161E-19
   101.1245        9.2660100E-19
   101.2513        9.2629019E-19
   101.3782        9.2597741E-19
   101.5050        9.2566215E-19
   101.6318        9.2534400E-19
   101.7587        9.2502191E-19
   101.8855        9.2469518E-19
   102.0124        9.2436389E-19
   102.1392        9.2402847E-19
   102.2661        9.2368881E-19
   102.3929        9.2334584E-19
   102.5197        9.2300018E-19
   102.6466        9.2265256E-19
   102.7734        9.2230494E-19
   102.9003        9.2195731E-19
   103.0271        9.2161114E-19
   103.1540        9.2126713E-19
   103.2808        9.2092520E-19
   103.4077        9.2058678E-19
   103.5345        9.2025115E-19
   103.6613        9.1991893E-19
   103.7882        9.1958972E-19
   103.9150        9.1926298E-19
   104.0419        9.1893914E-19
   104.1687        9.1861829E-19
   104.2956        9.1830045E-19
   104.4224        9.1798550E-19
   104.5492        9.1767334E-19
   104.6761        9.1736388E-19
   104.8029        9.1705751E-19
   104.9298        9.1675352E-19
   105.0566        9.1645253E-19
   105.1835        9.1615392E-19
   105.3103        9.1585789E-19
   105.4371        9.1556362E-19
   105.5640        9.1527028E-19
   105.6908        9.1497694E-19
   105.8177        9.1468216E-19
   105.9445        9.1438540E-19
   106.0714        9.1408607E-19
   106.1982        9.1378270E-19
   106.3251        9.1347551E-19
   106.4519        9.1316469E-19
   106.5787        9.1285067E-19
   106.7056        9.1253386E-19
   106.8324        9.1221292E-19
   106.9593        9.1188877E-19
   107.0861        9.1156100E-19
   107.2130        9.1122940E-19
   107.3398        9.1089419E-19
   107.4667        9.1055463E-19
   107.5935        9.1021083E-19
   107.7203        9.0986300E-19
   107.8472        9.0950980E-19
   107.9740        9.0915225E-19