  -7.200000        4.9196575E-18
  -7.073156        4.9196087E-18
  -6.946313        4.9195330E-18
  -6.819469        4.9194482E-18
  -6.692626        4.9193655E-18
  -6.565782        4.9192940E-18
  -6.438938        4.9192373E-18
  -6.312095        4.9191997E-18
  -6.185251        4.9191835E-18
  -6.058407        4.9191906E-18
  -5.931563        4.9192204E-18
  -5.804720        4.9192712E-18
  -5.677876        4.9193378E-18
  -5.551033        4.9194139E-18
  -5.424189        4.9194904E-18
  -5.297346        4.9195558E-18
  -5.170502        4.9196009E-18
  -5.043658        4.9196166E-18
  -4.916814        4.9195947E-18
  -4.789971        4.9195289E-18
  -4.663127        4.9194189E-18
  -4.536283        4.9192625E-18
  -4.409440        4.9190628E-18
  -4.282596        4.9188221E-18
  -4.155753        4.9185437E-18
  -4.028909        4.9182315E-18
  -3.902065        4.9178869E-18
  -3.775222        4.9175097E-18
  -3.648378        4.9170991E-18
  -3.521534        4.9166532E-18
  -3.394691        4.9161701E-18
  -3.267847        4.9156486E-18
  -3.141004        4.9150894E-18
  -3.014160        4.9144959E-18
  -2.887316        4.9138747E-18
  -2.760473        4.9132349E-18
  -2.633629        4.9125860E-18
  -2.506785        4.9119391E-18
  -2.379942        4.9113051E-18
  -2.253098        4.9106901E-18
  -2.126254        4.9100999E-18
  -1.999411        4.9095353E-18
  -1.872567        4.9089943E-18
  -1.745723        4.9084716E-18
  -1.618880        4.9079641E-18
  -1.492036        4.9074665E-18
  -1.365193        4.9069768E-18
  -1.238349        4.9064929E-18
  -1.111505        4.9060169E-18
 -0.9846617        4.9055545E-18
 -0.8578180        4.9051099E-18
 -0.7309744        4.9046901E-18
 -0.6041307        4.9043005E-18
 -0.4772871        4.9039452E-18
 -0.3504435        4.9036243E-18
 -0.2235998        4.9033356E-18
 -9.6756198E-02    4.9030721E-18
  3.0087441E-02    4.9028260E-18
  0.1569311        4.9025886E-18
  0.2837747        4.9023500E-18
  0.4106184        4.9021035E-18
  0.5374620        4.9018442E-18
  0.6643056        4.9015720E-18
  0.7911493        4.9012875E-18
  0.9179929        4.9009947E-18
   1.044837        4.9006973E-18
   1.171680        4.9004012E-18
   1.298524        4.9001075E-18
   1.425367        4.8998180E-18
   1.552211        4.8995301E-18
   1.679055        4.8992419E-18
   1.805898        4.8989474E-18
   1.932742        4.8986413E-18
   2.059586        4.8983167E-18
   2.186429        4.8979701E-18
   2.313273        4.8975974E-18
   2.440117        4.8971987E-18
   2.566960        4.8967756E-18
   2.693804        4.8963327E-18
   2.820647        4.8958765E-18
   2.947491        4.8954133E-18
   3.074335        4.8949496E-18
   3.201178        4.8944918E-18
   3.328022        4.8940435E-18
   3.454866        4.8936059E-18
   3.581709        4.8931778E-18
   3.708553        4.8927564E-18
   3.835397        4.8923378E-18
   3.962240        4.8919180E-18
   4.089084        4.8914933E-18
   4.215928        4.8910602E-18
   4.342771        4.8906193E-18
   4.469615        4.8901710E-18
   4.596458        4.8897177E-18
   4.723302        4.8892636E-18
   4.850146        4.8888128E-18
   4.976989        4.8883682E-18
   5.103833        4.8879339E-18
   5.230677        4.8875112E-18
   5.357520        4.8870972E-18
   5.484364        4.8866898E-18
   5.611207        4.8862837E-18
   5.738051        4.8858717E-18
   5.864895        4.8854491E-18
   5.991738        4.8850086E-18
   6.118582        4.8845466E-18
   6.245426        4.8840623E-18
   6.372270        4.8835560E-18
   6.499113        4.8830304E-18
   6.625957        4.8824898E-18
   6.752800        4.8819410E-18
   6.879644        4.8813888E-18
   7.006487        4.8808392E-18
   7.133331        4.8802974E-18
   7.260175        4.8797651E-18
   7.387019        4.8792452E-18
   7.513862        4.8787369E-18
   7.640706        4.8782393E-18
   7.767550        4.8777497E-18
   7.894393        4.8772649E-18
   8.021236        4.8767847E-18
   8.148081        4.8763075E-18
   8.274924        4.8758331E-18
   8.401768        4.8753624E-18
   8.528611        4.8748971E-18
   8.655455        4.8744372E-18
   8.782298        4.8739827E-18
   8.909142        4.8735319E-18
   9.035986        4.8730831E-18
   9.162829        4.8726348E-18
   9.289673        4.8721840E-18
   9.416516        4.8717294E-18
   9.543361        4.8712691E-18
   9.670204        4.8708026E-18
   9.797048        4.8703298E-18
   9.923891        4.8698521E-18
   10.05073        4.8693703E-18
   10.17758        4.8688856E-18
   10.30442        4.8683988E-18
   10.43127        4.8679108E-18
   10.55811        4.8674227E-18
   10.68495        4.8669339E-18
   10.81180        4.8664433E-18
   10.93864        4.8659516E-18
   11.06548        4.8654578E-18
   11.19233        4.8649602E-18
   11.31917        4.8644589E-18
   11.44602        4.8639544E-18
   11.57286        4.8634477E-18
   11.69970        4.8629402E-18
   11.82655        4.8624344E-18
   11.95339        4.8619315E-18
   12.08023        4.8614331E-18
   12.20708        4.8609401E-18
   12.33392        4.8604533E-18
   12.46076        4.8599731E-18
   12.58761        4.8594987E-18
   12.71445        4.8590293E-18
   12.84130        4.8585653E-18
   12.96814        4.8581049E-18
   13.09498        4.8576483E-18
   13.22183        4.8571950E-18
   13.34867        4.8567434E-18
   13.47551        4.8562926E-18
   13.60236        4.8558422E-18
   13.72920        4.8553918E-18
   13.85604        4.8549418E-18
   13.98289        4.8544931E-18
   14.10973        4.8540468E-18
   14.23658        4.8536051E-18
   14.36342        4.8531683E-18
   14.49026        4.8527386E-18
   14.61711        4.8523151E-18
   14.74395        4.8518970E-18
   14.87079        4.8514850E-18
   14.99764        4.8510764E-18
   15.12448        4.8506690E-18
   15.25132        4.8502604E-18
   15.37817        4.8498468E-18
   15.50501        4.8494258E-18
   15.63186        4.8489931E-18
   15.75870        4.8485469E-18
   15.88554        4.8480849E-18
   16.01239        4.8476060E-18
   16.13923        4.8471105E-18
   16.26607        4.8466001E-18
   16.39292        4.8460769E-18
   16.51976        4.8455434E-18
   16.64660        4.8450032E-18
   16.77345        4.8444606E-18
   16.90029        4.8439184E-18
   17.02714        4.8433799E-18
   17.15398        4.8428488E-18
   17.28082        4.8423265E-18
   17.40767        4.8418161E-18
   17.53451        4.8413165E-18
   17.66135        4.8408264E-18
   17.78820        4.8403445E-18
   17.91504        4.8398681E-18
   18.04188        4.8393945E-18
   18.16873        4.8389214E-18
   18.29557        4.8384470E-18
   18.42241        4.8379710E-18
   18.54926        4.8374941E-18
   18.67610        4.8370172E-18
   18.80295        4.8365420E-18
   18.92979        4.8360709E-18
   19.05663        4.8356065E-18
   19.18348        4.8351490E-18
   19.31032        4.8346999E-18
   19.43716        4.8342586E-18
   19.56401        4.8338235E-18
   19.69085        4.8333925E-18
   19.81770        4.8329624E-18
   19.94454        4.8325302E-18
   20.07138        4.8320926E-18
   20.19823        4.8316476E-18
   20.32507        4.8311922E-18
   20.45191        4.8307277E-18
   20.57876        4.8302542E-18
   20.70560        4.8297757E-18
   20.83245        4.8292930E-18
   20.95929        4.8288091E-18
   21.08613        4.8283248E-18
   21.21297        4.8278421E-18
   21.33982        4.8273607E-18
   21.46666        4.8268797E-18
   21.59351        4.8263991E-18
   21.72035        4.8259189E-18
   21.84719        4.8254392E-18
   21.97404        4.8249586E-18
   22.10088        4.8244780E-18
   22.22772        4.8239962E-18
   22.35457        4.8235143E-18
   22.48141        4.8230325E-18
   22.60826        4.8225523E-18
   22.73510        4.8220746E-18
   22.86194        4.8216002E-18
   22.98879        4.8211300E-18
   23.11563        4.8206651E-18
   23.24247        4.8202052E-18
   23.36932        4.8197498E-18
   23.49616        4.8192978E-18
   23.62300        4.8188490E-18
   23.74985        4.8184023E-18
   23.87669        4.8179590E-18
   24.00353        4.8175185E-18
   24.13038        4.8170797E-18
   24.25722        4.8166433E-18
   24.38407        4.8162082E-18
   24.51091        4.8157731E-18
   24.63775        4.8153360E-18
   24.76460        4.8148951E-18
   24.89144        4.8144488E-18
   25.01828        4.8139964E-18
   25.14513        4.8135377E-18
   25.27197        4.8130712E-18
   25.39882        4.8125980E-18
   25.52566        4.8121166E-18
   25.65250        4.8116281E-18
   25.77935        4.8111314E-18
   25.90619        4.8106285E-18
   26.03303        4.8101190E-18
   26.15988        4.8096049E-18
   26.28672        4.8090891E-18
   26.41356        4.8085721E-18
   26.54041        4.8080560E-18
   26.66725        4.8075435E-18
   26.79410        4.8070348E-18
   26.92094        4.8065319E-18
   27.04778        4.8060348E-18
   27.17463        4.8055434E-18
   27.30147        4.8050579E-18
   27.42831        4.8045777E-18
   27.55516        4.8041012E-18
   27.68200        4.8036260E-18
   27.80884        4.8031504E-18
   27.93569        4.8026723E-18
   28.06253        4.8021900E-18
   28.18937        4.8017032E-18
   28.31622        4.8012123E-18
   28.44306        4.8007172E-18
   28.56991        4.8002184E-18
   28.69675        4.7997184E-18
   28.82359        4.7992180E-18
   28.95044        4.7987179E-18
   29.07728        4.7982195E-18
   29.20412        4.7977228E-18
   29.33097        4.7972286E-18
   29.45781        4.7967377E-18
   29.58466        4.7962504E-18
   29.71150        4.7957661E-18
   29.83834        4.7952851E-18
   29.96519        4.7948074E-18
   30.09203        4.7943318E-18
   30.21887        4.7938574E-18
   30.34572        4.7933851E-18
   30.47256        4.7929144E-18
   30.59941        4.7924475E-18
   30.72625        4.7919855E-18
   30.85309        4.7915297E-18
   30.97993        4.7910810E-18
   31.10678        4.7906405E-18
   31.23362        4.7902075E-18
   31.36047        4.7897811E-18
   31.48731        4.7893596E-18
   31.61415        4.7889423E-18
   31.74100        4.7885258E-18
   31.86784        4.7881073E-18
   31.99468        4.7876837E-18
   32.12153        4.7872511E-18
   32.24837        4.7868057E-18
   32.37521        4.7863458E-18
   32.50206        4.7858710E-18
   32.62890        4.7853821E-18
   32.75574        4.7848808E-18
   32.88259        4.7843713E-18
   33.00943        4.7838572E-18
   33.13628        4.7833419E-18
   33.26312        4.7828274E-18
   33.38997        4.7823133E-18
   33.51681        4.7818004E-18
   33.64365        4.7812867E-18
   33.77050        4.7807706E-18
   33.89734        4.7802515E-18
   34.02418        4.7797279E-18
   34.15103        4.7792014E-18
   34.27787        4.7786729E-18
   34.40471        4.7781447E-18
   34.53156        4.7776190E-18
   34.65840        4.7770991E-18
   34.78524        4.7765884E-18
   34.91209        4.7760887E-18
   35.03893        4.7756019E-18
   35.16578        4.7751296E-18
   35.29262        4.7746697E-18
   35.41946        4.7742189E-18
   35.54631        4.7737751E-18
   35.67315        4.7733334E-18
   35.80000        4.7728909E-18
   35.92684        4.7724446E-18
   36.05368        4.7719921E-18
   36.18052        4.7715351E-18
   36.30737        4.7710735E-18
   36.43421        4.7706099E-18
   36.56105        4.7701459E-18
   36.68790        4.7696831E-18
   36.81474        4.7692227E-18
   36.94159        4.7687645E-18
   37.06843        4.7683095E-18
   37.19527        4.7678562E-18
   37.32212        4.7674038E-18
   37.44896        4.7669513E-18
   37.57581        4.7664959E-18
   37.70265        4.7660364E-18
   37.82949        4.7655711E-18
   37.95634        4.7650997E-18
   38.08318        4.7646211E-18
   38.21002        4.7641356E-18
   38.33687        4.7636446E-18
   38.46371        4.7631504E-18
   38.59055        4.7626541E-18
   38.71740        4.7621586E-18
   38.84424        4.7616648E-18
   38.97108        4.7611743E-18
   39.09793        4.7606858E-18
   39.22477        4.7601998E-18
   39.35162        4.7597143E-18
   39.47846        4.7592263E-18
   39.60530        4.7587345E-18
   39.73215        4.7582361E-18
   39.85899        4.7577299E-18
   39.98583        4.7572146E-18
   40.11268        4.7566905E-18
   40.23952        4.7561595E-18
   40.36636        4.7556243E-18
   40.49321        4.7550891E-18
   40.62005        4.7545585E-18
   40.74689        4.7540365E-18
   40.87374        4.7535253E-18
   41.00058        4.7530274E-18
   41.12743        4.7525402E-18
   41.25427        4.7520629E-18
   41.38111        4.7515901E-18
   41.50796        4.7511199E-18
   41.63480        4.7506480E-18
   41.76165        4.7501723E-18
   41.88849        4.7496926E-18
   42.01533        4.7492095E-18
   42.14218        4.7487260E-18
   42.26902        4.7482450E-18
   42.39586        4.7477690E-18
   42.52271        4.7473016E-18
   42.64955        4.7468454E-18
   42.77639        4.7464000E-18
   42.90324        4.7459653E-18
   43.03008        4.7455385E-18
   43.15693        4.7451150E-18
   43.28377        4.7446894E-18
   43.41061        4.7442572E-18
   43.53746        4.7438142E-18
   43.66430        4.7433572E-18
   43.79114        4.7428861E-18
   43.91799        4.7424014E-18
   44.04483        4.7419067E-18
   44.17167        4.7414042E-18
   44.29852        4.7408992E-18
   44.42536        4.7403942E-18
   44.55220        4.7398921E-18
   44.67905        4.7393938E-18
   44.80589        4.7389008E-18
   44.93274        4.7384123E-18
   45.05958        4.7379272E-18
   45.18642        4.7374441E-18
   45.31327        4.7369610E-18
   45.44011        4.7364759E-18
   45.56696        4.7359866E-18
   45.69380        4.7354915E-18
   45.82064        4.7349903E-18
   45.94748        4.7344853E-18
   46.07433        4.7339757E-18
   46.20117        4.7334662E-18
   46.32801        4.7329600E-18
   46.45486        4.7324587E-18
   46.58170        4.7319661E-18
   46.70855        4.7314834E-18
   46.83539        4.7310103E-18
   46.96223        4.7305475E-18
   47.08908        4.7300917E-18
   47.21592        4.7296405E-18
   47.34277        4.7291922E-18
   47.46961        4.7287430E-18
   47.59645        4.7282905E-18
   47.72330        4.7278331E-18
   47.85014        4.7273703E-18
   47.97698        4.7269013E-18
   48.10383        4.7264261E-18
   48.23067        4.7259467E-18
   48.35751        4.7254641E-18
   48.48436        4.7249785E-18
   48.61120        4.7244913E-18
   48.73804        4.7240012E-18
   48.86489        4.7235069E-18
   48.99173        4.7230073E-18
   49.11858        4.7225007E-18
   49.24542        4.7219841E-18
   49.37226        4.7214580E-18
   49.49911        4.7209228E-18
   49.62595        4.7203810E-18
   49.75279        4.7198347E-18
   49.87964        4.7192871E-18
   50.00648        4.7187420E-18
   50.13332        4.7182018E-18
   50.26017        4.7176687E-18
   50.38701        4.7171447E-18
   50.51385        4.7166306E-18
   50.64070        4.7161252E-18
   50.76754        4.7156280E-18
   50.89439        4.7151379E-18
   51.02123        4.7146524E-18
   51.14808        4.7141697E-18
   51.27492        4.7136887E-18
   51.40176        4.7132085E-18
   51.52861        4.7127284E-18
   51.65545        4.7122474E-18
   51.78229        4.7117664E-18
   51.90914        4.7112845E-18
   52.03598        4.7108023E-18
   52.16282        4.7103188E-18
   52.28967        4.7098336E-18
   52.41651        4.7093473E-18
   52.54335        4.7088592E-18
   52.67020        4.7083704E-18
   52.79704        4.7078823E-18
   52.92389        4.7073955E-18
   53.05073        4.7069100E-18
   53.17757        4.7064257E-18
   53.30442        4.7059418E-18
   53.43126        4.7054579E-18
   53.55810        4.7049719E-18
   53.68495        4.7044847E-18
   53.81179        4.7039962E-18
   53.93863        4.7035070E-18
   54.06548        4.7030181E-18
   54.19232        4.7025321E-18
   54.31916        4.7020507E-18
   54.44601        4.7015751E-18
   54.57285        4.7011061E-18
   54.69970        4.7006433E-18
   54.82654        4.7001867E-18
   54.95338        4.6997342E-18
   55.08023        4.6992846E-18
   55.20707        4.6988346E-18
   55.33392        4.6983809E-18
   55.46076        4.6979227E-18
   55.58760        4.6974570E-18
   55.71444        4.6969838E-18
   55.84129        4.6965032E-18
   55.96813        4.6960168E-18
   56.09497        4.6955271E-18
   56.22182        4.6950366E-18
   56.34866        4.6945482E-18
   56.47551        4.6940647E-18
   56.60235        4.6935853E-18
   56.72919        4.6931118E-18
   56.85604        4.6926432E-18
   56.98288        4.6921779E-18
   57.10973        4.6917138E-18
   57.23657        4.6912502E-18
   57.36341        4.6907841E-18
   57.49026        4.6903147E-18
   57.61710        4.6898407E-18
   57.74394        4.6893609E-18
   57.87079        4.6888758E-18
   57.99763        4.6883844E-18
   58.12447        4.6878877E-18
   58.25132        4.6873864E-18
   58.37816        4.6868827E-18
   58.50500        4.6863765E-18
   58.63185        4.6858698E-18
   58.75869        4.6853632E-18
   58.88554        4.6848553E-18
   59.01238        4.6843449E-18
   59.13923        4.6838304E-18
   59.26607        4.6833089E-18
   59.39291        4.6827799E-18
   59.51975        4.6822426E-18
   59.64660        4.6816963E-18
   59.77344        4.6811425E-18
   59.90028        4.6805829E-18
   60.02713        4.6800208E-18
   60.15397        4.6794596E-18
   60.28082        4.6789033E-18
   60.40766        4.6783549E-18
   60.53450        4.6778168E-18
   60.66135        4.6772911E-18
   60.78819        4.6767766E-18
   60.91504        4.6762724E-18
   61.04188        4.6757753E-18
   61.16872        4.6752827E-18
   61.29557        4.6747901E-18
   61.42241        4.6742959E-18
   61.54925        4.6737992E-18
   61.67610        4.6733000E-18
   61.80294        4.6728008E-18
   61.92978        4.6723028E-18
   62.05663        4.6718098E-18
   62.18347        4.6713259E-18
   62.31031        4.6708532E-18
   62.43716        4.6703924E-18
   62.56400        4.6699441E-18
   62.69085        4.6695053E-18
   62.81769        4.6690735E-18
   62.94453        4.6686446E-18
   63.07138        4.6682145E-18
   63.19822        4.6677794E-18
   63.32506        4.6673368E-18
   63.45191        4.6668856E-18
   63.57875        4.6664240E-18
   63.70559        4.6659546E-18
   63.83244        4.6654782E-18
   63.95928        4.6649971E-18
   64.08613        4.6645149E-18
   64.21297        4.6640331E-18
   64.33981        4.6635529E-18
   64.46666        4.6630748E-18
   64.59350        4.6625979E-18
   64.72034        4.6621206E-18
   64.84719        4.6616413E-18
   64.97403        4.6611582E-18
   65.10088        4.6606698E-18
   65.22771        4.6601747E-18
   65.35456        4.6596718E-18
   65.48141        4.6591614E-18
   65.60825        4.6586436E-18
   65.73509        4.6581196E-18
   65.86194        4.6575910E-18
   65.98878        4.6570595E-18
   66.11562        4.6565272E-18
   66.24247        4.6559949E-18
   66.36931        4.6554647E-18
   66.49615        4.6549361E-18
   66.62300        4.6544092E-18
   66.74984        4.6538827E-18
   66.87669        4.6533550E-18
   67.00353        4.6528260E-18
   67.13037        4.6522941E-18
   67.25722        4.6517585E-18
   67.38406        4.6512196E-18
   67.51090        4.6506791E-18
   67.63775        4.6501385E-18
   67.76459        4.6495992E-18
   67.89143        4.6490648E-18
   68.01828        4.6485375E-18
   68.14512        4.6480213E-18
   68.27197        4.6475184E-18
   68.39881        4.6470295E-18
   68.52565        4.6465552E-18
   68.65250        4.6460948E-18
   68.77934        4.6456461E-18
   68.90618        4.6452069E-18
   69.03303        4.6447734E-18
   69.15987        4.6443424E-18
   69.28671        4.6439111E-18
   69.41356        4.6434785E-18
   69.54041        4.6430434E-18
   69.66724        4.6426074E-18
   69.79409        4.6421707E-18
   69.92093        4.6417364E-18
   70.04778        4.6413059E-18
   70.17462        4.6408811E-18
   70.30146        4.6404630E-18
   70.42831        4.6400523E-18
   70.55515        4.6396465E-18
   70.68199        4.6392449E-18
   70.80884        4.6388446E-18
   70.93568        4.6384434E-18
   71.06252        4.6380385E-18
   71.18937        4.6376282E-18
   71.31622        4.6372113E-18
   71.44305        4.6367878E-18
   71.56990        4.6363581E-18
   71.69675        4.6359234E-18
   71.82359        4.6354875E-18
   71.95043        4.6350516E-18
   72.07728        4.6346181E-18
   72.20412        4.6341888E-18
   72.33096        4.6337653E-18
   72.45780        4.6333488E-18
   72.58465        4.6329393E-18
   72.71149        4.6325353E-18
   72.83833        4.6321357E-18
   72.96518        4.6317404E-18
   73.09203        4.6313458E-18
   73.21886        4.6309504E-18
   73.34571        4.6305529E-18
   73.47256        4.6301522E-18
   73.59940        4.6297485E-18
   73.72624        4.6293419E-18
   73.85309        4.6289333E-18
   73.97993        4.6285247E-18
   74.10677        4.6281165E-18
   74.23362        4.6277095E-18
   74.36046        4.6273054E-18
   74.48730        4.6269042E-18
   74.61415        4.6265060E-18
   74.74099        4.6261106E-18
   74.86784        4.6257164E-18
   74.99467        4.6253227E-18
   75.12152        4.6249269E-18
   75.24837        4.6245290E-18
   75.37521        4.6241278E-18
   75.50205        4.6237237E-18
   75.62890        4.6233180E-18
   75.75574        4.6229131E-18
   75.88258        4.6225119E-18
   76.00943        4.6221173E-18
   76.13627        4.6217315E-18
   76.26311        4.6213555E-18
   76.38996        4.6209907E-18
   76.51680        4.6206342E-18
   76.64365        4.6202843E-18
   76.77049        4.6199373E-18
   76.89733        4.6195903E-18
   77.02418        4.6192400E-18
   77.15102        4.6188847E-18
   77.27786        4.6185237E-18
   77.40471        4.6181580E-18
   77.53155        4.6177904E-18
   77.65839        4.6174223E-18
   77.78524        4.6170571E-18
   77.91208        4.6166977E-18
   78.03893        4.6163453E-18
   78.16577        4.6160016E-18
   78.29261        4.6156662E-18
   78.41946        4.6153365E-18
   78.54630        4.6150110E-18
   78.67314        4.6146847E-18
   78.79999        4.6143551E-18
   78.92683        4.6140184E-18
   79.05367        4.6136731E-18
   79.18052        4.6133182E-18
   79.30737        4.6129534E-18
   79.43420        4.6125808E-18
   79.56105        4.6122032E-18
   79.68790        4.6118231E-18
   79.81474        4.6114438E-18
   79.94158        4.6110691E-18
   80.06842        4.6107014E-18
   80.19527        4.6103420E-18
   80.32211        4.6099921E-18
   80.44895        4.6096534E-18
   80.57580        4.6093238E-18
   80.70264        4.6090020E-18
   80.82948        4.6086860E-18
   80.95633        4.6083725E-18
   81.08318        4.6080602E-18
   81.21001        4.6077459E-18
   81.33686        4.6074295E-18
   81.46371        4.6071110E-18
   81.59055        4.6067926E-18
   81.71739        4.6064758E-18
   81.84424        4.6061639E-18
   81.97108        4.6058599E-18
   82.09792        4.6055659E-18
   82.22476        4.6052834E-18
   82.35161        4.6050108E-18
   82.47845        4.6047474E-18
   82.60529        4.6044893E-18
   82.73214        4.6042337E-18
   82.85899        4.6039748E-18
   82.98582        4.6037101E-18
   83.11267        4.6034367E-18
   83.23952        4.6031555E-18
   83.36636        4.6028668E-18
   83.49320        4.6025731E-18
   83.62005        4.6022795E-18
   83.74689        4.6019896E-18
   83.87373        4.6017067E-18
   84.00058        4.6014325E-18
   84.12742        4.6011678E-18
   84.25426        4.6009101E-18
   84.38111        4.6006570E-18
   84.50795        4.6004043E-18
   84.63480        4.6001491E-18
   84.76163        4.5998869E-18
   84.88848        4.5996168E-18
   85.01533        4.5993384E-18
   85.14217        4.5990518E-18
   85.26901        4.5987590E-18
   85.39586        4.5984641E-18
   85.52270        4.5981684E-18
   85.64954        4.5978760E-18
   85.77639        4.5975881E-18
   85.90323        4.5973073E-18
   86.03008        4.5970335E-18
   86.15692        4.5967643E-18
   86.28376        4.5964975E-18
   86.41061        4.5962316E-18
   86.53745        4.5959619E-18
   86.66429        4.5956856E-18
   86.79114        4.5954007E-18
   86.91798        4.5951053E-18
   87.04482        4.5947997E-18
   87.17167        4.5944850E-18
   87.29851        4.5941632E-18
   87.42535        4.5938356E-18
   87.55220        4.5935064E-18
   87.67904        4.5931788E-18
   87.80589        4.5928554E-18
   87.93273        4.5925394E-18
   88.05957        4.5922321E-18
   88.18642        4.5919339E-18
   88.31326        4.5916428E-18
   88.44010        4.5913562E-18
   88.56695        4.5910704E-18
   88.69379        4.5907808E-18
   88.82063        4.5904835E-18
   88.94748        4.5901758E-18
   89.07433        4.5898556E-18
   89.20116        4.5895244E-18
   89.32801        4.5891836E-18
   89.45486        4.5888374E-18
   89.58170        4.5884896E-18
   89.70854        4.5881442E-18
   89.83538        4.5878059E-18
   89.96223        4.5874754E-18
   90.08907        4.5871532E-18
   90.21591        4.5868389E-18
   90.34276        4.5865300E-18
   90.46960        4.5862243E-18
   90.59644        4.5859203E-18
   90.72329        4.5856151E-18
   90.85014        4.5853078E-18
   90.97697        4.5849980E-18
   91.10382        4.5846858E-18
   91.23067        4.5843727E-18
   91.35751        4.5840612E-18
   91.48435        4.5837539E-18
   91.61120        4.5834529E-18
   91.73804        4.5831584E-18
   91.86488        4.5828718E-18
   91.99173        4.5825934E-18
   92.11857        4.5823221E-18
   92.24541        4.5820557E-18
   92.37225        4.5817923E-18
   92.49910        4.5815297E-18
   92.62595        4.5812666E-18
   92.75278        4.5810011E-18
   92.87963        4.5807318E-18
   93.00648        4.5804576E-18
   93.13332        4.5801789E-18
   93.26016        4.5798956E-18
   93.38701        4.5796089E-18
   93.51385        4.5793203E-18
   93.64069        4.5790316E-18
   93.76754        4.5787441E-18
   93.89438        4.5784592E-18
   94.02122        4.5781779E-18
   94.14807        4.5779000E-18
   94.27491        4.5776237E-18
   94.40176        4.5773478E-18
   94.52859        4.5770699E-18
   94.65544        4.5767874E-18
   94.78229        4.5764983E-18
   94.90913        4.5762026E-18
   95.03597        4.5758990E-18
   95.16282        4.5755884E-18
   95.28966        4.5752729E-18
   95.41650        4.5749540E-18
   95.54335        4.5746351E-18
   95.67019        4.5743179E-18
   95.79704        4.5740044E-18
   95.92388        4.5736938E-18
   96.05072        4.5733873E-18
   96.17757        4.5730804E-18
   96.30441        4.5727723E-18
   96.43125        4.5724580E-18
   96.55810        4.5721345E-18
   96.68494        4.5718004E-18
   96.81178        4.5714546E-18
   96.93863        4.5710977E-18
   97.06547        4.5707316E-18
   97.19231        4.5703598E-18
   97.31916        4.5699847E-18
   97.44600        4.5696100E-18
   97.57285        4.5692382E-18
   97.69969        4.5688713E-18
   97.82653        4.5685107E-18
   97.95338        4.5681550E-18
   98.08022        4.5678038E-18
   98.20706        4.5674552E-18
   98.33391        4.5671065E-18
   98.46075        4.5667562E-18
   98.58759        4.5664026E-18
   98.71444        4.5660440E-18
   98.84129        4.5656813E-18
   98.96812        4.5653140E-18
   99.09497        4.5649447E-18
   99.22182        4.5645754E-18
   99.34866        4.5642093E-18
   99.47550        4.5638487E-18
   99.60234        4.5634959E-18
   99.72919        4.5631518E-18
   99.85603        4.5628159E-18
   99.98287        4.5624875E-18
   100.1097        4.5621658E-18
   100.2366        4.5618486E-18
   100.3634        4.5615334E-18
   100.4902        4.5612187E-18
   100.6171        4.5609031E-18
   100.7439        4.5605859E-18
   100.8708        4.5602670E-18
   100.9976        4.5599477E-18
   101.1245        4.5596288E-18
   101.2513        4.5593132E-18
   101.3782        4.5590026E-18
   101.5050        4.5586978E-18
   101.6318        4.5584013E-18
   101.7587        4.5581118E-18
   101.8855        4.5578285E-18
   102.0124        4.5575501E-18
   102.1392        4.5572734E-18
   102.2661        4.5569963E-18
   102.3929        4.5567155E-18
   102.5197        4.5564297E-18
   102.6466        4.5561377E-18
   102.7734        4.5558395E-18
   102.9003        4.5555359E-18
   103.0271        4.5552274E-18
   103.1540        4.5549164E-18
   103.2808        4.5546029E-18
   103.4077        4.5542885E-18
   103.5345        4.5539738E-18
   103.6613        4.5536591E-18
   103.7882        4.5533443E-18
   103.9150        4.5530287E-18
   104.0419        4.5527119E-18
   104.1687        4.5523914E-18
   104.2956        4.5520659E-18
   104.4224        4.5517342E-18
   104.5492        4.5513955E-18
   104.6761        4.5510489E-18
   104.8029        4.5506936E-18
   104.9298        4.5503317E-18
   105.0566        4.5499649E-18
   105.1835        4.5495930E-18
   105.3103        4.5492196E-18
   105.4371        4.5488457E-18
   105.5640        4.5484735E-18
   105.6908        4.5481037E-18
   105.8177        4.5477373E-18
   105.9445        4.5473737E-18
   106.0714        4.5470127E-18
   106.1982        4.5466528E-18
   106.3251        4.5462930E-18
   106.4519        4.5459319E-18
   106.5787        4.5455672E-18
   106.7056        4.5451995E-18
   106.8324        4.5448285E-18
   106.9593        4.5444563E-18
   107.0861        4.5440844E-18
   107.2130        4.5437151E-18
   107.3398        4.5433511E-18
   107.4667        4.5429938E-18
   107.5935        4.5426447E-18
   107.7203        4.5423031E-18
   107.8472        4.5419685E-18
   107.9740        4.5416401E-18