  -7.200000        9.8276195E-18
  -7.073156        9.8276435E-18
  -6.946313        9.8276865E-18
  -6.819469        9.8277453E-18
  -6.692626        9.8278139E-18
  -6.565782        9.8278884E-18
  -6.438938        9.8279636E-18
  -6.312095        9.8280340E-18
  -6.185251        9.8280960E-18
  -6.058407        9.8281514E-18
  -5.931563        9.8282010E-18
  -5.804720        9.8282474E-18
  -5.677876        9.8282904E-18
  -5.551033        9.8283276E-18
  -5.424189        9.8283549E-18
  -5.297346        9.8283640E-18
  -5.170502        9.8283483E-18
  -5.043658        9.8283053E-18
  -4.916814        9.8282358E-18
  -4.789971        9.8281415E-18
  -4.663127        9.8280282E-18
  -4.536283        9.8278975E-18
  -4.409440        9.8277486E-18
  -4.282596        9.8275790E-18
  -4.155753        9.8273830E-18
  -4.028909        9.8271571E-18
  -3.902065        9.8269007E-18
  -3.775222        9.8266170E-18
  -3.648378        9.8263118E-18
  -3.521534        9.8259908E-18
  -3.394691        9.8256591E-18
  -3.267847        9.8253175E-18
  -3.141004        9.8249635E-18
  -3.014160        9.8245970E-18
  -2.887316        9.8242182E-18
  -2.760473        9.8238335E-18
  -2.633629        9.8234489E-18
  -2.506785        9.8230750E-18
  -2.379942        9.8227201E-18
  -2.253098        9.8223893E-18
  -2.126254        9.8220849E-18
  -1.999411        9.8218028E-18
  -1.872567        9.8215422E-18
  -1.745723        9.8213032E-18
  -1.618880        9.8210865E-18
  -1.492036        9.8208987E-18
  -1.365193        9.8207465E-18
  -1.238349        9.8206365E-18
  -1.111505        9.8205711E-18
 -0.9846617        9.8205480E-18
 -0.8578180        9.8205612E-18
 -0.7309744        9.8206050E-18
 -0.6041307        9.8206745E-18
 -0.4772871        9.8207705E-18
 -0.3504435        9.8208962E-18
 -0.2235998        9.8210559E-18
 -9.6756198E-02    9.8212519E-18
  3.0087441E-02    9.8214802E-18
  0.1569311        9.8217383E-18
  0.2837747        9.8220195E-18
  0.4106184        9.8223165E-18
  0.5374620        9.8226283E-18
  0.6643056        9.8229609E-18
  0.7911493        9.8233174E-18
  0.9179929        9.8237061E-18
   1.044837        9.8241297E-18
   1.171680        9.8245863E-18
   1.298524        9.8250685E-18
   1.425367        9.8255698E-18
   1.552211        9.8260835E-18
   1.679055        9.8266062E-18
   1.805898        9.8271406E-18
   1.932742        9.8276907E-18
   2.059586        9.8282598E-18
   2.186429        9.8288520E-18
   2.313273        9.8294641E-18
   2.440117        9.8300895E-18
   2.566960        9.8307231E-18
   2.693804        9.8313584E-18
   2.820647        9.8319970E-18
   2.947491        9.8326413E-18
   3.074335        9.8332973E-18
   3.201178        9.8339690E-18
   3.328022        9.8346547E-18
   3.454866        9.8353487E-18
   3.581709        9.8360402E-18
   3.708553        9.8367202E-18
   3.835397        9.8373811E-18
   3.962240        9.8380197E-18
   4.089084        9.8386409E-18
   4.215928        9.8392505E-18
   4.342771        9.8398544E-18
   4.469615        9.8404508E-18
   4.596458        9.8410372E-18
   4.723302        9.8416055E-18
   4.850146        9.8421523E-18
   4.976989        9.8426750E-18
   5.103833        9.8431788E-18
   5.230677        9.8436751E-18
   5.357520        9.8441756E-18
   5.484364        9.8446884E-18
   5.611207        9.8452186E-18
   5.738051        9.8457629E-18
   5.864895        9.8463188E-18
   5.991738        9.8468829E-18
   6.118582        9.8474545E-18
   6.245426        9.8480393E-18
   6.372270        9.8486440E-18
   6.499113        9.8492743E-18
   6.625957        9.8499319E-18
   6.752800        9.8506135E-18
   6.879644        9.8513083E-18
   7.006487        9.8520040E-18
   7.133331        9.8526930E-18
   7.260175        9.8533697E-18
   7.387019        9.8540355E-18
   7.513862        9.8546965E-18
   7.640706        9.8553566E-18
   7.767550        9.8560191E-18
   7.894393        9.8566776E-18
   8.021236        9.8573252E-18
   8.148081        9.8579539E-18
   8.274924        9.8585577E-18
   8.401768        9.8591384E-18
   8.528611        9.8597042E-18
   8.655455        9.8602659E-18
   8.782298        9.8608308E-18
   8.909142        9.8614024E-18
   9.035986        9.8619790E-18
   9.162829        9.8625547E-18
   9.289673        9.8631238E-18
   9.416516        9.8636879E-18
   9.543361        9.8642512E-18
   9.670204        9.8648220E-18
   9.797048        9.8654093E-18
   9.923891        9.8660189E-18
   10.05073        9.8666501E-18
   10.17758        9.8672944E-18
   10.30442        9.8679446E-18
   10.43127        9.8685898E-18
   10.55811        9.8692284E-18
   10.68495        9.8698628E-18
   10.81180        9.8704997E-18
   10.93864        9.8711450E-18
   11.06548        9.8718026E-18
   11.19233        9.8724684E-18
   11.31917        9.8731368E-18
   11.44602        9.8737961E-18
   11.57286        9.8744421E-18
   11.69970        9.8750749E-18
   11.82655        9.8757011E-18
   11.95339        9.8763305E-18
   12.08023        9.8769700E-18
   12.20708        9.8776209E-18
   12.33392        9.8782810E-18
   12.46076        9.8789403E-18
   12.58761        9.8795888E-18
   12.71445        9.8802216E-18
   12.84130        9.8808387E-18
   12.96814        9.8814483E-18
   13.09498        9.8820588E-18
   13.22183        9.8826767E-18
   13.34867        9.8833037E-18
   13.47551        9.8839332E-18
   13.60236        9.8845560E-18
   13.72920        9.8851640E-18
   13.85604        9.8857538E-18
   13.98289        9.8863312E-18
   14.10973        9.8869061E-18
   14.23658        9.8874917E-18
   14.36342        9.8880947E-18
   14.49026        9.8887159E-18
   14.61711        9.8893479E-18
   14.74395        9.8899790E-18
   14.87079        9.8906019E-18
   14.99764        9.8912107E-18
   15.12448        9.8918104E-18
   15.25132        9.8924085E-18
   15.37817        9.8930131E-18
   15.50501        9.8936302E-18
   15.63186        9.8942539E-18
   15.75870        9.8948759E-18
   15.88554        9.8954847E-18
   16.01239        9.8960729E-18
   16.13923        9.8966395E-18
   16.26607        9.8971929E-18
   16.39292        9.8977454E-18
   16.51976        9.8983079E-18
   16.64660        9.8988853E-18
   16.77345        9.8994726E-18
   16.90029        9.9000624E-18
   17.02714        9.9006439E-18
   17.15398        9.9012097E-18
   17.28082        9.9017614E-18
   17.40767        9.9023073E-18
   17.53451        9.9028599E-18
   17.66135        9.9034265E-18
   17.78820        9.9040121E-18
   17.91504        9.9046110E-18
   18.04188        9.9052132E-18
   18.16873        9.9058104E-18
   18.29557        9.9063977E-18
   18.42241        9.9069776E-18
   18.54926        9.9075583E-18
   18.67610        9.9081505E-18
   18.80295        9.9087585E-18
   18.92979        9.9093830E-18
   19.05663        9.9100175E-18
   19.18348        9.9106519E-18
   19.31032        9.9112781E-18
   19.43716        9.9118927E-18
   19.56401        9.9125007E-18
   19.69085        9.9131111E-18
   19.81770        9.9137323E-18
   19.94454        9.9143709E-18
   20.07138        9.9150219E-18
   20.19823        9.9156804E-18
   20.32507        9.9163355E-18
   20.45191        9.9169790E-18
   20.57876        9.9176118E-18
   20.70560        9.9182372E-18
   20.83245        9.9188667E-18
   20.95929        9.9195077E-18
   21.08613        9.9201637E-18
   21.21297        9.9208304E-18
   21.33982        9.9215004E-18
   21.46666        9.9221630E-18
   21.59351        9.9228140E-18
   21.72035        9.9234550E-18
   21.84719        9.9240920E-18
   21.97404        9.9247322E-18
   22.10088        9.9253832E-18
   22.22772        9.9260449E-18
   22.35457        9.9267125E-18
   22.48141        9.9273750E-18
   22.60826        9.9280227E-18
   22.73510        9.9286539E-18
   22.86194        9.9292685E-18
   22.98879        9.9298773E-18
   23.11563        9.9304885E-18
   23.24247        9.9311073E-18
   23.36932        9.9317326E-18
   23.49616        9.9323588E-18
   23.62300        9.9329759E-18
   23.74985        9.9335772E-18
   23.87669        9.9341621E-18
   24.00353        9.9347353E-18
   24.13038        9.9353077E-18
   24.25722        9.9358884E-18
   24.38407        9.9364831E-18
   24.51091        9.9370894E-18
   24.63775        9.9377007E-18
   24.76460        9.9383079E-18
   24.89144        9.9389051E-18
   25.01828        9.9394916E-18
   25.14513        9.9400747E-18
   25.27197        9.9406620E-18
   25.39882        9.9412617E-18
   25.52566        9.9418788E-18
   25.65250        9.9425083E-18
   25.77935        9.9431411E-18
   25.90619        9.9437673E-18
   26.03303        9.9443802E-18
   26.15988        9.9449783E-18
   26.28672        9.9455672E-18
   26.41356        9.9461562E-18
   26.54041        9.9467517E-18
   26.66725        9.9473556E-18
   26.79410        9.9479636E-18
   26.92094        9.9485682E-18
   27.04778        9.9491605E-18
   27.17463        9.9497395E-18
   27.30147        9.9503061E-18
   27.42831        9.9508686E-18
   27.55516        9.9514385E-18
   27.68200        9.9520234E-18
   27.80884        9.9526289E-18
   27.93569        9.9532501E-18
   28.06253        9.9538820E-18
   28.18937        9.9545157E-18
   28.31622        9.9551476E-18
   28.44306        9.9557804E-18
   28.56991        9.9564173E-18
   28.69675        9.9570683E-18
   28.82359        9.9577359E-18
   28.95044        9.9584191E-18
   29.07728        9.9591106E-18
   29.20412        9.9598005E-18
   29.33097        9.9604805E-18
   29.45781        9.9611439E-18
   29.58466        9.9617932E-18
   29.71150        9.9624326E-18
   29.83834        9.9630687E-18
   29.96519        9.9637073E-18
   30.09203        9.9643459E-18
   30.21887        9.9649811E-18
   30.34572        9.9656024E-18
   30.47256        9.9662062E-18
   30.59941        9.9667910E-18
   30.72625        9.9673609E-18
   30.85309        9.9679251E-18
   30.97993        9.9684917E-18
   31.10678        9.9690649E-18
   31.23362        9.9696464E-18
   31.36047        9.9702337E-18
   31.48731        9.9708194E-18
   31.61415        9.9714025E-18
   31.74100        9.9719824E-18
   31.86784        9.9725623E-18
   31.99468        9.9731504E-18
   32.12153        9.9737526E-18
   32.24837        9.9743713E-18
   32.37521        9.9750033E-18
   32.50206        9.9756419E-18
   32.62890        9.9762804E-18
   32.75574        9.9769141E-18
   32.88259        9.9775419E-18
   33.00943        9.9781664E-18
   33.13628        9.9787934E-18
   33.26312        9.9794270E-18
   33.38997        9.9800664E-18
   33.51681        9.9807092E-18
   33.64365        9.9813494E-18
   33.77050        9.9819797E-18
   33.89734        9.9825968E-18
   34.02418        9.9832023E-18
   34.15103        9.9837995E-18
   34.27787        9.9843967E-18
   34.40471        9.9849989E-18
   34.53156        9.9856069E-18
   34.65840        9.9862198E-18
   34.78524        9.9868303E-18
   34.91209        9.9874325E-18
   35.03893        9.9880231E-18
   35.16578        9.9886054E-18
   35.29262        9.9891836E-18
   35.41946        9.9897660E-18
   35.54631        9.9903574E-18
   35.67315        9.9909588E-18
   35.80000        9.9915676E-18
   35.92684        9.9921780E-18
   36.05368        9.9927860E-18
   36.18052        9.9933882E-18
   36.30737        9.9939862E-18
   36.43421        9.9945859E-18
   36.56105        9.9951923E-18
   36.68790        9.9958118E-18
   36.81474        9.9964430E-18
   36.94159        9.9970824E-18
   37.06843        9.9977218E-18
   37.19527        9.9983546E-18
   37.32212        9.9989766E-18
   37.44896        9.9995896E-18
   37.57581        1.0000196E-17
   37.70265        1.0000804E-17
   37.82949        1.0001415E-17
   37.95634        1.0002030E-17
   38.08318        1.0002644E-17
   38.21002        1.0003252E-17
   38.33687        1.0003849E-17
   38.46371        1.0004431E-17
   38.59055        1.0005001E-17
   38.71740        1.0005564E-17
   38.84424        1.0006127E-17
   38.97108        1.0006694E-17
   39.09793        1.0007267E-17
   39.22477        1.0007844E-17
   39.35162        1.0008422E-17
   39.47846        1.0008999E-17
   39.60530        1.0009573E-17
   39.73215        1.0010147E-17
   39.85899        1.0010728E-17
   39.98583        1.0011320E-17
   40.11268        1.0011928E-17
   40.23952        1.0012552E-17
   40.36636        1.0013188E-17
   40.49321        1.0013832E-17
   40.62005        1.0014476E-17
   40.74689        1.0015119E-17
   40.87374        1.0015762E-17
   41.00058        1.0016408E-17
   41.12743        1.0017063E-17
   41.25427        1.0017727E-17
   41.38111        1.0018400E-17
   41.50796        1.0019078E-17
   41.63480        1.0019754E-17
   41.76165        1.0020422E-17
   41.88849        1.0021082E-17
   42.01533        1.0021735E-17
   42.14218        1.0022383E-17
   42.26902        1.0023029E-17
   42.39586        1.0023676E-17
   42.52271        1.0024321E-17
   42.64955        1.0024959E-17
   42.77639        1.0025586E-17
   42.90324        1.0026199E-17
   43.03008        1.0026797E-17
   43.15693        1.0027385E-17
   43.28377        1.0027971E-17
   43.41061        1.0028557E-17
   43.53746        1.0029149E-17
   43.66430        1.0029743E-17
   43.79114        1.0030337E-17
   43.91799        1.0030926E-17
   44.04483        1.0031507E-17
   44.17167        1.0032085E-17
   44.29852        1.0032661E-17
   44.42536        1.0033244E-17
   44.55220        1.0033838E-17
   44.67905        1.0034444E-17
   44.80589        1.0035061E-17
   44.93274        1.0035680E-17
   45.05958        1.0036298E-17
   45.18642        1.0036911E-17
   45.31327        1.0037520E-17
   45.44011        1.0038126E-17
   45.56696        1.0038734E-17
   45.69380        1.0039346E-17
   45.82064        1.0039959E-17
   45.94748        1.0040571E-17
   46.07433        1.0041172E-17
   46.20117        1.0041757E-17
   46.32801        1.0042325E-17
   46.45486        1.0042878E-17
   46.58170        1.0043420E-17
   46.70855        1.0043960E-17
   46.83539        1.0044502E-17
   46.96223        1.0045046E-17
   47.08908        1.0045591E-17
   47.21592        1.0046130E-17
   47.34277        1.0046663E-17
   47.46961        1.0047189E-17
   47.59645        1.0047713E-17
   47.72330        1.0048243E-17
   47.85014        1.0048787E-17
   47.97698        1.0049347E-17
   48.10383        1.0049924E-17
   48.23067        1.0050516E-17
   48.35751        1.0051115E-17
   48.48436        1.0051718E-17
   48.61120        1.0052324E-17
   48.73804        1.0052934E-17
   48.86489        1.0053554E-17
   48.99173        1.0054187E-17
   49.11858        1.0054834E-17
   49.24542        1.0055494E-17
   49.37226        1.0056159E-17
   49.49911        1.0056825E-17
   49.62595        1.0057486E-17
   49.75279        1.0058139E-17
   49.87964        1.0058787E-17
   50.00648        1.0059434E-17
   50.13332        1.0060085E-17
   50.26017        1.0060743E-17
   50.38701        1.0061404E-17
   50.51385        1.0062066E-17
   50.64070        1.0062723E-17
   50.76754        1.0063373E-17
   50.89439        1.0064016E-17
   51.02123        1.0064652E-17
   51.14808        1.0065287E-17
   51.27492        1.0065926E-17
   51.40176        1.0066571E-17
   51.52861        1.0067220E-17
   51.65545        1.0067868E-17
   51.78229        1.0068510E-17
   51.90914        1.0069143E-17
   52.03598        1.0069767E-17
   52.16282        1.0070382E-17
   52.28967        1.0070995E-17
   52.41651        1.0071607E-17
   52.54335        1.0072222E-17
   52.67020        1.0072835E-17
   52.79704        1.0073440E-17
   52.92389        1.0074037E-17
   53.05073        1.0074622E-17
   53.17757        1.0075197E-17
   53.30442        1.0075765E-17
   53.43126        1.0076333E-17
   53.55810        1.0076902E-17
   53.68495        1.0077474E-17
   53.81179        1.0078047E-17
   53.93863        1.0078618E-17
   54.06548        1.0079182E-17
   54.19232        1.0079740E-17
   54.31916        1.0080295E-17
   54.44601        1.0080853E-17
   54.57285        1.0081418E-17
   54.69970        1.0081992E-17
   54.82654        1.0082571E-17
   54.95338        1.0083158E-17
   55.08023        1.0083744E-17
   55.20707        1.0084329E-17
   55.33392        1.0084912E-17
   55.46076        1.0085495E-17
   55.58760        1.0086080E-17
   55.71444        1.0086673E-17
   55.84129        1.0087275E-17
   55.96813        1.0087883E-17
   56.09497        1.0088492E-17
   56.22182        1.0089097E-17
   56.34866        1.0089694E-17
   56.47551        1.0090284E-17
   56.60235        1.0090869E-17
   56.72919        1.0091455E-17
   56.85604        1.0092043E-17
   56.98288        1.0092636E-17
   57.10973        1.0093231E-17
   57.23657        1.0093825E-17
   57.36341        1.0094415E-17
   57.49026        1.0094997E-17
   57.61710        1.0095574E-17
   57.74394        1.0096150E-17
   57.87079        1.0096732E-17
   57.99763        1.0097321E-17
   58.12447        1.0097920E-17
   58.25132        1.0098526E-17
   58.37816        1.0099136E-17
   58.50500        1.0099744E-17
   58.63185        1.0100349E-17
   58.75869        1.0100951E-17
   58.88554        1.0101557E-17
   59.01238        1.0102167E-17
   59.13923        1.0102784E-17
   59.26607        1.0103411E-17
   59.39291        1.0104039E-17
   59.51975        1.0104668E-17
   59.64660        1.0105291E-17
   59.77344        1.0105907E-17
   59.90028        1.0106517E-17
   60.02713        1.0107124E-17
   60.15397        1.0107731E-17
   60.28082        1.0108341E-17
   60.40766        1.0108951E-17
   60.53450        1.0109560E-17
   60.66135        1.0110164E-17
   60.78819        1.0110758E-17
   60.91504        1.0111343E-17
   61.04188        1.0111923E-17
   61.16872        1.0112500E-17
   61.29557        1.0113078E-17
   61.42241        1.0113657E-17
   61.54925        1.0114239E-17
   61.67610        1.0114821E-17
   61.80294        1.0115397E-17
   61.92978        1.0115968E-17
   62.05663        1.0116532E-17
   62.18347        1.0117094E-17
   62.31031        1.0117654E-17
   62.43716        1.0118216E-17
   62.56400        1.0118782E-17
   62.69085        1.0119351E-17
   62.81769        1.0119920E-17
   62.94453        1.0120489E-17
   63.07138        1.0121054E-17
   63.19822        1.0121618E-17
   63.32506        1.0122182E-17
   63.45191        1.0122750E-17
   63.57875        1.0123324E-17
   63.70559        1.0123902E-17
   63.83244        1.0124485E-17
   63.95928        1.0125068E-17
   64.08613        1.0125648E-17
   64.21297        1.0126226E-17
   64.33981        1.0126802E-17
   64.46666        1.0127376E-17
   64.59350        1.0127951E-17
   64.72034        1.0128527E-17
   64.84719        1.0129103E-17
   64.97403        1.0129678E-17
   65.10088        1.0130249E-17
   65.22771        1.0130815E-17
   65.35456        1.0131376E-17
   65.48141        1.0131934E-17
   65.60825        1.0132489E-17
   65.73509        1.0133044E-17
   65.86194        1.0133599E-17
   65.98878        1.0134153E-17
   66.11562        1.0134704E-17
   66.24247        1.0135250E-17
   66.36931        1.0135789E-17
   66.49615        1.0136323E-17
   66.62300        1.0136855E-17
   66.74984        1.0137387E-17
   66.87669        1.0137921E-17
   67.00353        1.0138457E-17
   67.13037        1.0138996E-17
   67.25722        1.0139532E-17
   67.38406        1.0140064E-17
   67.51090        1.0140592E-17
   67.63775        1.0141116E-17
   67.76459        1.0141637E-17
   67.89143        1.0142158E-17
   68.01828        1.0142679E-17
   68.14512        1.0143199E-17
   68.27197        1.0143714E-17
   68.39881        1.0144224E-17
   68.52565        1.0144726E-17
   68.65250        1.0145220E-17
   68.77934        1.0145710E-17
   68.90618        1.0146197E-17
   69.03303        1.0146686E-17
   69.15987        1.0147178E-17
   69.28671        1.0147672E-17
   69.41356        1.0148169E-17
   69.54041        1.0148669E-17
   69.66724        1.0149172E-17
   69.79409        1.0149679E-17
   69.92093        1.0150189E-17
   70.04778        1.0150703E-17
   70.17462        1.0151223E-17
   70.30146        1.0151746E-17
   70.42831        1.0152273E-17
   70.55515        1.0152802E-17
   70.68199        1.0153333E-17
   70.80884        1.0153864E-17
   70.93568        1.0154393E-17
   71.06252        1.0154922E-17
   71.18937        1.0155449E-17
   71.31622        1.0155971E-17
   71.44305        1.0156490E-17
   71.56990        1.0157003E-17
   71.69675        1.0157510E-17
   71.82359        1.0158010E-17
   71.95043        1.0158506E-17
   72.07728        1.0158995E-17
   72.20412        1.0159476E-17
   72.33096        1.0159951E-17
   72.45780        1.0160419E-17
   72.58465        1.0160883E-17
   72.71149        1.0161343E-17
   72.83833        1.0161801E-17
   72.96518        1.0162256E-17
   73.09203        1.0162712E-17
   73.21886        1.0163166E-17
   73.34571        1.0163616E-17
   73.47256        1.0164063E-17
   73.59940        1.0164504E-17
   73.72624        1.0164937E-17
   73.85309        1.0165366E-17
   73.97993        1.0165788E-17
   74.10677        1.0166207E-17
   74.23362        1.0166620E-17
   74.36046        1.0167029E-17
   74.48730        1.0167431E-17
   74.61415        1.0167827E-17
   74.74099        1.0168212E-17
   74.86784        1.0168589E-17
   74.99467        1.0168961E-17
   75.12152        1.0169327E-17
   75.24837        1.0169690E-17
   75.37521        1.0170050E-17
   75.50205        1.0170404E-17
   75.62890        1.0170752E-17
   75.75574        1.0171092E-17
   75.88258        1.0171426E-17
   76.00943        1.0171753E-17
   76.13627        1.0172077E-17
   76.26311        1.0172402E-17
   76.38996        1.0172728E-17
   76.51680        1.0173058E-17
   76.64365        1.0173390E-17
   76.77049        1.0173723E-17
   76.89733        1.0174055E-17
   77.02418        1.0174389E-17
   77.15102        1.0174724E-17
   77.27786        1.0175066E-17
   77.40471        1.0175414E-17
   77.53155        1.0175769E-17
   77.65839        1.0176128E-17
   77.78524        1.0176490E-17
   77.91208        1.0176850E-17
   78.03893        1.0177208E-17
   78.16577        1.0177567E-17
   78.29261        1.0177926E-17
   78.41946        1.0178288E-17
   78.54630        1.0178656E-17
   78.67314        1.0179028E-17
   78.79999        1.0179403E-17
   78.92683        1.0179776E-17
   79.05367        1.0180146E-17
   79.18052        1.0180511E-17
   79.30737        1.0180873E-17
   79.43420        1.0181234E-17
   79.56105        1.0181598E-17
   79.68790        1.0181965E-17
   79.81474        1.0182333E-17
   79.94158        1.0182698E-17
   80.06842        1.0183057E-17
   80.19527        1.0183409E-17
   80.32211        1.0183753E-17
   80.44895        1.0184092E-17
   80.57580        1.0184431E-17
   80.70264        1.0184774E-17
   80.82948        1.0185123E-17
   80.95633        1.0185477E-17
   81.08318        1.0185833E-17
   81.21001        1.0186190E-17
   81.33686        1.0186545E-17
   81.46371        1.0186899E-17
   81.59055        1.0187254E-17
   81.71739        1.0187614E-17
   81.84424        1.0187983E-17
   81.97108        1.0188360E-17
   82.09792        1.0188741E-17
   82.22476        1.0189123E-17
   82.35161        1.0189500E-17
   82.47845        1.0189869E-17
   82.60529        1.0190231E-17
   82.73214        1.0190586E-17
   82.85899        1.0190942E-17
   82.98582        1.0191300E-17
   83.11267        1.0191661E-17
   83.23952        1.0192020E-17
   83.36636        1.0192372E-17
   83.49320        1.0192711E-17
   83.62005        1.0193037E-17
   83.74689        1.0193351E-17
   83.87373        1.0193657E-17
   84.00058        1.0193960E-17
   84.12742        1.0194267E-17
   84.25426        1.0194576E-17
   84.38111        1.0194886E-17
   84.50795        1.0195194E-17
   84.63480        1.0195492E-17
   84.76163        1.0195784E-17
   84.88848        1.0196069E-17
   85.01533        1.0196353E-17
   85.14217        1.0196645E-17
   85.26901        1.0196947E-17
   85.39586        1.0197258E-17
   85.52270        1.0197574E-17
   85.64954        1.0197894E-17
   85.77639        1.0198211E-17
   85.90323        1.0198525E-17
   86.03008        1.0198840E-17
   86.15692        1.0199161E-17
   86.28376        1.0199493E-17
   86.41061        1.0199838E-17
   86.53745        1.0200193E-17
   86.66429        1.0200551E-17
   86.79114        1.0200905E-17
   86.91798        1.0201253E-17
   87.04482        1.0201594E-17
   87.17167        1.0201932E-17
   87.29851        1.0202270E-17
   87.42535        1.0202614E-17
   87.55220        1.0202964E-17
   87.67904        1.0203317E-17
   87.80589        1.0203667E-17
   87.93273        1.0204013E-17
   88.05957        1.0204353E-17
   88.18642        1.0204690E-17
   88.31326        1.0205026E-17
   88.44010        1.0205368E-17
   88.56695        1.0205720E-17
   88.69379        1.0206080E-17
   88.82063        1.0206448E-17
   88.94748        1.0206819E-17
   89.07433        1.0207190E-17
   89.20116        1.0207559E-17
   89.32801        1.0207930E-17
   89.45486        1.0208306E-17
   89.58170        1.0208690E-17
   89.70854        1.0209085E-17
   89.83538        1.0209491E-17
   89.96223        1.0209900E-17
   90.08907        1.0210309E-17
   90.21591        1.0210714E-17
   90.34276        1.0211112E-17
   90.46960        1.0211504E-17
   90.59644        1.0211893E-17
   90.72329        1.0212283E-17
   90.85014        1.0212675E-17
   90.97697        1.0213064E-17
   91.10382        1.0213448E-17
   91.23067        1.0213821E-17
   91.35751        1.0214182E-17
   91.48435        1.0214530E-17
   91.61120        1.0214868E-17
   91.73804        1.0215205E-17
   91.86488        1.0215542E-17
   91.99173        1.0215882E-17
   92.11857        1.0216224E-17
   92.24541        1.0216564E-17
   92.37225        1.0216898E-17
   92.49910        1.0217223E-17
   92.62595        1.0217541E-17
   92.75278        1.0217852E-17
   92.87963        1.0218160E-17
   93.00648        1.0218468E-17
   93.13332        1.0218777E-17
   93.26016        1.0219085E-17
   93.38701        1.0219390E-17
   93.51385        1.0219691E-17
   93.64069        1.0219984E-17
   93.76754        1.0220271E-17
   93.89438        1.0220554E-17
   94.02122        1.0220840E-17
   94.14807        1.0221131E-17
   94.27491        1.0221432E-17
   94.40176        1.0221740E-17
   94.52859        1.0222056E-17
   94.65544        1.0222376E-17
   94.78229        1.0222697E-17
   94.90913        1.0223021E-17
   95.03597        1.0223349E-17
   95.16282        1.0223684E-17
   95.28966        1.0224027E-17
   95.41650        1.0224378E-17
   95.54335        1.0224737E-17
   95.67019        1.0225097E-17
   95.79704        1.0225458E-17
   95.92388        1.0225817E-17
   96.05072        1.0226172E-17
   96.17757        1.0226525E-17
   96.30441        1.0226880E-17
   96.43125        1.0227240E-17
   96.55810        1.0227606E-17
   96.68494        1.0227979E-17
   96.81178        1.0228355E-17
   96.93863        1.0228734E-17
   97.06547        1.0229111E-17
   97.19231        1.0229487E-17
   97.31916        1.0229864E-17
   97.44600        1.0230246E-17
   97.57285        1.0230631E-17
   97.69969        1.0231023E-17
   97.82653        1.0231420E-17
   97.95338        1.0231820E-17
   98.08022        1.0232219E-17
   98.20706        1.0232616E-17
   98.33391        1.0233012E-17
   98.46075        1.0233407E-17
   98.58759        1.0233802E-17
   98.71444        1.0234200E-17
   98.84129        1.0234603E-17
   98.96812        1.0235008E-17
   99.09497        1.0235415E-17
   99.22182        1.0235817E-17
   99.34866        1.0236214E-17
   99.47550        1.0236605E-17
   99.60234        1.0236991E-17
   99.72919        1.0237376E-17
   99.85603        1.0237764E-17
   99.98287        1.0238156E-17
   100.1097        1.0238549E-17
   100.2366        1.0238941E-17
   100.3634        1.0239328E-17
   100.4902        1.0239708E-17
   100.6171        1.0240081E-17
   100.7439        1.0240448E-17
   100.8708        1.0240814E-17
   100.9976        1.0241180E-17
   101.1245        1.0241551E-17
   101.2513        1.0241921E-17
   101.3782        1.0242288E-17
   101.5050        1.0242649E-17
   101.6318        1.0243000E-17
   101.7587        1.0243343E-17
   101.8855        1.0243681E-17
   102.0124        1.0244016E-17
   102.1392        1.0244356E-17
   102.2661        1.0244698E-17
   102.3929        1.0245041E-17
   102.5197        1.0245381E-17
   102.6466        1.0245713E-17
   102.7734        1.0246033E-17
   102.9003        1.0246344E-17
   103.0271        1.0246649E-17
   103.1540        1.0246955E-17
   103.2808        1.0247265E-17
   103.4077        1.0247582E-17
   103.5345        1.0247903E-17
   103.6613        1.0248226E-17
   103.7882        1.0248545E-17
   103.9150        1.0248859E-17
   104.0419        1.0249171E-17
   104.1687        1.0249483E-17
   104.2956        1.0249804E-17
   104.4224        1.0250136E-17
   104.5492        1.0250480E-17
   104.6761        1.0250833E-17
   104.8029        1.0251189E-17
   104.9298        1.0251541E-17
   105.0566        1.0251888E-17
   105.1835        1.0252230E-17
   105.3103        1.0252572E-17
   105.4371        1.0252920E-17
   105.5640        1.0253278E-17
   105.6908        1.0253645E-17
   105.8177        1.0254012E-17
   105.9445        1.0254374E-17
   106.0714        1.0254723E-17
   106.1982        1.0255059E-17
   106.3251        1.0255384E-17
   106.4519        1.0255706E-17
   106.5787        1.0256030E-17
   106.7056        1.0256362E-17
   106.8324        1.0256699E-17
   106.9593        1.0257037E-17
   107.0861        1.0257372E-17
   107.2130        1.0257697E-17
   107.3398        1.0258015E-17
   107.4667        1.0258328E-17
   107.5935        1.0258643E-17
   107.7203        1.0258967E-17
   107.8472        1.0259302E-17
   107.9740        1.0259644E-17