  -7.200000        4.0728486E-20
  -7.073156        4.0714699E-20
  -6.946313        4.0688035E-20
  -6.819469        4.0650024E-20
  -6.692626        4.0602451E-20
  -6.565782        4.0548788E-20
  -6.438938        4.0491454E-20
  -6.312095        4.0433823E-20
  -6.185251        4.0378385E-20
  -6.058407        4.0327724E-20
  -5.931563        4.0284633E-20
  -5.804720        4.0251016E-20
  -5.677876        4.0227454E-20
  -5.551033        4.0213928E-20
  -5.424189        4.0210245E-20
  -5.297346        4.0214229E-20
  -5.170502        4.0224701E-20
  -5.043658        4.0239241E-20
  -4.916814        4.0254198E-20
  -4.789971        4.0267905E-20
  -4.663127        4.0277802E-20
  -4.536283        4.0281890E-20
  -4.409440        4.0276746E-20
  -4.282596        4.0262852E-20
  -4.155753        4.0238825E-20
  -4.028909        4.0204616E-20
  -3.902065        4.0161470E-20
  -3.775222        4.0110708E-20
  -3.648378        4.0054124E-20
  -3.521534        3.9993630E-20
  -3.394691        3.9932057E-20
  -3.267847        3.9872852E-20
  -3.141004        3.9817176E-20
  -3.014160        3.9767971E-20
  -2.887316        3.9727013E-20
  -2.760473        3.9694924E-20
  -2.633629        3.9672871E-20
  -2.506785        3.9661187E-20
  -2.379942        3.9658134E-20
  -2.253098        3.9663947E-20
  -2.126254        3.9676112E-20
  -1.999411        3.9692061E-20
  -1.872567        3.9710305E-20
  -1.745723        3.9727721E-20
  -1.618880        3.9742432E-20
  -1.492036        3.9752597E-20
  -1.365193        3.9756155E-20
  -1.238349        3.9751295E-20
  -1.111505        3.9737724E-20
 -0.9846617        3.9715226E-20
 -0.8578180        3.9683838E-20
 -0.7309744        3.9644954E-20
 -0.6041307        3.9599986E-20
 -0.4772871        3.9550481E-20
 -0.3504435        3.9499503E-20
 -0.2235998        3.9448796E-20
 -9.6756198E-02    3.9400803E-20
  3.0087441E-02    3.9357780E-20
  0.1569311        3.9321546E-20
  0.2837747        3.9293522E-20
  0.4106184        3.9274406E-20
  0.5374620        3.9264916E-20
  0.6643056        3.9264632E-20
  0.7911493        3.9273482E-20
  0.9179929        3.9289360E-20
   1.044837        3.9310864E-20
   1.171680        3.9335294E-20
   1.298524        3.9360507E-20
   1.425367        3.9384573E-20
   1.552211        3.9404774E-20
   1.679055        3.9419279E-20
   1.805898        3.9426452E-20
   1.932742        3.9425208E-20
   2.059586        3.9415505E-20
   2.186429        3.9397097E-20
   2.313273        3.9370488E-20
   2.440117        3.9337340E-20
   2.566960        3.9300033E-20
   2.693804        3.9260086E-20
   2.820647        3.9220452E-20
   2.947491        3.9182664E-20
   3.074335        3.9149886E-20
   3.201178        3.9124470E-20
   3.328022        3.9108230E-20
   3.454866        3.9100963E-20
   3.581709        3.9104637E-20
   3.708553        3.9117937E-20
   3.835397        3.9140949E-20
   3.962240        3.9171913E-20
   4.089084        3.9209414E-20
   4.215928        3.9250421E-20
   4.342771        3.9293196E-20
   4.469615        3.9334186E-20
   4.596458        3.9372059E-20
   4.723302        3.9404047E-20
   4.850146        3.9428595E-20
   4.976989        3.9444696E-20
   5.103833        3.9452282E-20
   5.230677        3.9451122E-20
   5.357520        3.9442282E-20
   5.484364        3.9427263E-20
   5.611207        3.9408090E-20
   5.738051        3.9386722E-20
   5.864895        3.9365768E-20
   5.991738        3.9347857E-20
   6.118582        3.9335078E-20
   6.245426        3.9329388E-20
   6.372270        3.9332096E-20
   6.499113        3.9344665E-20
   6.625957        3.9366734E-20
   6.752800        3.9397963E-20
   6.879644        3.9437516E-20
   7.006487        3.9484358E-20
   7.133331        3.9536597E-20
   7.260175        3.9590741E-20
   7.387019        3.9645303E-20
   7.513862        3.9697015E-20
   7.640706        3.9744416E-20
   7.767550        3.9784512E-20
   7.894393        3.9817066E-20
   8.021236        3.9840821E-20
   8.148081        3.9855669E-20
   8.274924        3.9861404E-20
   8.401768        3.9859078E-20
   8.528611        3.9850806E-20
   8.655455        3.9838262E-20
   8.782298        3.9822895E-20
   8.909142        3.9807472E-20
   9.035986        3.9793643E-20
   9.162829        3.9783736E-20
   9.289673        3.9780104E-20
   9.416516        3.9783394E-20
   9.543361        3.9795204E-20
   9.670204        3.9815308E-20
   9.797048        3.9843061E-20
   9.923891        3.9879334E-20
   10.05073        3.9921669E-20
   10.17758        3.9969306E-20
   10.30442        4.0019670E-20
   10.43127        4.0071062E-20
   10.55811        4.0120780E-20
   10.68495        4.0166553E-20
   10.81180        4.0206703E-20
   10.93864        4.0239949E-20
   11.06548        4.0264693E-20
   11.19233        4.0280914E-20
   11.31917        4.0288368E-20
   11.44602        4.0288106E-20
   11.57286        4.0281644E-20
   11.69970        4.0270681E-20
   11.82655        4.0257966E-20
   11.95339        4.0244686E-20
   12.08023        4.0233690E-20
   12.20708        4.0227079E-20
   12.33392        4.0227176E-20
   12.46076        4.0234443E-20
   12.58761        4.0250563E-20
   12.71445        4.0275065E-20
   12.84130        4.0307833E-20
   12.96814        4.0347838E-20
   13.09498        4.0393427E-20
   13.22183        4.0443200E-20
   13.34867        4.0493910E-20
   13.47551        4.0544374E-20
   13.60236        4.0592725E-20
   13.72920        4.0637665E-20
   13.85604        4.0676820E-20
   13.98289        4.0710547E-20
   14.10973        4.0737156E-20
   14.23658        4.0757583E-20
   14.36342        4.0771280E-20
   14.49026        4.0779775E-20
   14.61711        4.0784799E-20
   14.74395        4.0786483E-20
   14.87079        4.0787216E-20
   14.99764        4.0788631E-20
   15.12448        4.0791291E-20
   15.25132        4.0797304E-20
   15.37817        4.0807456E-20
   15.50501        4.0822484E-20
   15.63186        4.0842647E-20
   15.75870        4.0868684E-20
   15.88554        4.0899832E-20
   16.01239        4.0935249E-20
   16.13923        4.0974363E-20
   16.26607        4.1016439E-20
   16.39292        4.1059174E-20
   16.51976        4.1102217E-20
   16.64660        4.1143883E-20
   16.77345        4.1181972E-20
   16.90029        4.1215586E-20
   17.02714        4.1244188E-20
   17.15398        4.1266596E-20
   17.28082        4.1282481E-20
   17.40767        4.1291780E-20
   17.53451        4.1295425E-20
   17.66135        4.1293625E-20
   17.78820        4.1288320E-20
   17.91504        4.1279780E-20
   18.04188        4.1270871E-20
   18.16873        4.1262367E-20
   18.29557        4.1256199E-20
   18.42241        4.1254900E-20
   18.54926        4.1258974E-20
   18.67610        4.1269750E-20
   18.80295        4.1287489E-20
   18.92979        4.1313455E-20
   19.05663        4.1346885E-20
   19.18348        4.1387261E-20
   19.31032        4.1433018E-20
   19.43716        4.1481951E-20
   19.56401        4.1533401E-20
   19.69085        4.1584224E-20
   19.81770        4.1632133E-20
   19.94454        4.1676371E-20
   20.07138        4.1714007E-20
   20.19823        4.1744028E-20
   20.32507        4.1765907E-20
   20.45191        4.1779694E-20
   20.57876        4.1785342E-20
   20.70560        4.1783707E-20
   20.83245        4.1776363E-20
   20.95929        4.1765713E-20
   21.08613        4.1752597E-20
   21.21297        4.1740745E-20
   21.33982        4.1730768E-20
   21.46666        4.1725646E-20
   21.59351        4.1725591E-20
   21.72035        4.1731427E-20
   21.84719        4.1743385E-20
   21.97404        4.1761428E-20
   22.10088        4.1783940E-20
   22.22772        4.1809712E-20
   22.35457        4.1837745E-20
   22.48141        4.1865411E-20
   22.60826        4.1891231E-20
   22.73510        4.1913297E-20
   22.86194        4.1929976E-20
   22.98879        4.1939330E-20
   23.11563        4.1940985E-20
   23.24247        4.1934416E-20
   23.36932        4.1919843E-20
   23.49616        4.1898139E-20
   23.62300        4.1869795E-20
   23.74985        4.1835858E-20
   23.87669        4.1798826E-20
   24.00353        4.1759793E-20
   24.13038        4.1720644E-20
   24.25722        4.1683696E-20
   24.38407        4.1649636E-20
   24.51091        4.1620672E-20
   24.63775        4.1597423E-20
   24.76460        4.1580560E-20
   24.89144        4.1570075E-20
   25.01828        4.1565674E-20
   25.14513        4.1567083E-20
   25.27197        4.1572572E-20
   25.39882        4.1581520E-20
   25.52566        4.1592173E-20
   25.65250        4.1603252E-20
   25.77935        4.1613541E-20
   25.90619        4.1620442E-20
   26.03303        4.1624245E-20
   26.15988        4.1623809E-20
   26.28672        4.1618626E-20
   26.41356        4.1608083E-20
   26.54041        4.1592796E-20
   26.66725        4.1573028E-20
   26.79410        4.1549628E-20
   26.92094        4.1524105E-20
   27.04778        4.1497900E-20
   27.17463        4.1472203E-20
   27.30147        4.1449029E-20
   27.42831        4.1430356E-20
   27.55516        4.1416904E-20
   27.68200        4.1408810E-20
   27.80884        4.1407120E-20
   27.93569        4.1411179E-20
   28.06253        4.1420494E-20
   28.18937        4.1434227E-20
   28.31622        4.1450625E-20
   28.44306        4.1468186E-20
   28.56991        4.1485460E-20
   28.69675        4.1501383E-20
   28.82359        4.1513636E-20
   28.95044        4.1521216E-20
   29.07728        4.1524599E-20
   29.20412        4.1522809E-20
   29.33097        4.1515694E-20
   29.45781        4.1503425E-20
   29.58466        4.1487208E-20
   29.71150        4.1468186E-20
   29.83834        4.1447051E-20
   29.96519        4.1424995E-20
   30.09203        4.1403479E-20
   30.21887        4.1383306E-20
   30.34572        4.1365102E-20
   30.47256        4.1350358E-20
   30.59941        4.1338862E-20
   30.72625        4.1330932E-20
   30.85309        4.1325998E-20
   30.97993        4.1323439E-20
   31.10678        4.1322984E-20
   31.23362        4.1323200E-20
   31.36047        4.1323552E-20
   31.48731        4.1323423E-20
   31.61415        4.1321972E-20
   31.74100        4.1318605E-20
   31.86784        4.1312644E-20
   31.99468        4.1304905E-20
   32.12153        4.1295225E-20
   32.24837        4.1284594E-20
   32.37521        4.1273792E-20
   32.50206        4.1263614E-20
   32.62890        4.1254263E-20
   32.75574        4.1246854E-20
   32.88259        4.1242156E-20
   33.00943        4.1240149E-20
   33.13628        4.1241199E-20
   33.26312        4.1244631E-20
   33.38997        4.1250382E-20
   33.51681        4.1257972E-20
   33.64365        4.1267172E-20
   33.77050        4.1278077E-20
   33.89734        4.1289392E-20
   34.02418        4.1300424E-20
   34.15103        4.1312033E-20
   34.27787        4.1323743E-20
   34.40471        4.1335805E-20
   34.53156        4.1347301E-20
   34.65840        4.1359008E-20
   34.78524        4.1371500E-20
   34.91209        4.1385145E-20
   35.03893        4.1399886E-20
   35.16578        4.1415893E-20
   35.29262        4.1434330E-20
   35.41946        4.1454050E-20
   35.54631        4.1475524E-20
   35.67315        4.1497835E-20
   35.80000        4.1520770E-20
   35.92684        4.1543863E-20
   36.05368        4.1567054E-20
   36.18052        4.1588654E-20
   36.30737        4.1608406E-20
   36.43421        4.1626394E-20
   36.56105        4.1641012E-20
   36.68790        4.1653029E-20
   36.81474        4.1662112E-20
   36.94159        4.1669269E-20
   37.06843        4.1673786E-20
   37.19527        4.1677104E-20
   37.32212        4.1679809E-20
   37.44896        4.1683146E-20
   37.57581        4.1687618E-20
   37.70265        4.1694288E-20
   37.82949        4.1704130E-20
   37.95634        4.1716470E-20
   38.08318        4.1732021E-20
   38.21002        4.1750636E-20
   38.33687        4.1772013E-20
   38.46371        4.1795149E-20
   38.59055        4.1819402E-20
   38.71740        4.1844033E-20
   38.84424        4.1866949E-20
   38.97108        4.1887476E-20
   39.09793        4.1904421E-20
   39.22477        4.1916822E-20
   39.35162        4.1923581E-20
   39.47846        4.1924803E-20
   39.60530        4.1920722E-20
   39.73215        4.1911416E-20
   39.85899        4.1898068E-20
   39.98583        4.1883030E-20
   40.11268        4.1866929E-20
   40.23952        4.1851820E-20
   40.36636        4.1839296E-20
   40.49321        4.1830275E-20
   40.62005        4.1826397E-20
   40.74689        4.1827926E-20
   40.87374        4.1835070E-20
   41.00058        4.1847713E-20
   41.12743        4.1865065E-20
   41.25427        4.1886248E-20
   41.38111        4.1909487E-20
   41.50796        4.1933336E-20
   41.63480        4.1955964E-20
   41.76165        4.1975936E-20
   41.88849        4.1991656E-20
   42.01533        4.2002651E-20
   42.14218        4.2008293E-20
   42.26902        4.2009472E-20
   42.39586        4.2005227E-20
   42.52271        4.1997052E-20
   42.64955        4.1986363E-20
   42.77639        4.1975261E-20
   42.90324        4.1963797E-20
   43.03008        4.1954675E-20
   43.15693        4.1949263E-20
   43.28377        4.1947970E-20
   43.41061        4.1951285E-20
   43.53746        4.1959661E-20
   43.66430        4.1971758E-20
   43.79114        4.1987404E-20
   43.91799        4.2004949E-20
   44.04483        4.2023108E-20
   44.17167        4.2040863E-20
   44.29852        4.2055688E-20
   44.42536        4.2066361E-20
   44.55220        4.2072241E-20
   44.67905        4.2072894E-20
   44.80589        4.2067889E-20
   44.93274        4.2057032E-20
   45.05958        4.2041645E-20
   45.18642        4.2022194E-20
   45.31327        4.2000377E-20
   45.44011        4.1977112E-20
   45.56696        4.1954145E-20
   45.69380        4.1933343E-20
   45.82064        4.1914541E-20
   45.94748        4.1899338E-20
   46.07433        4.1888688E-20
   46.20117        4.1882571E-20
   46.32801        4.1880461E-20
   46.45486        4.1882455E-20
   46.58170        4.1887095E-20
   46.70855        4.1893108E-20
   46.83539        4.1899125E-20
   46.96223        4.1904572E-20
   47.08908        4.1907309E-20
   47.21592        4.1906724E-20
   47.34277        4.1902385E-20
   47.46961        4.1893370E-20
   47.59645        4.1881053E-20
   47.72330        4.1865317E-20
   47.85014        4.1846508E-20
   47.97698        4.1826927E-20
   48.10383        4.1807443E-20
   48.23067        4.1789578E-20
   48.35751        4.1774660E-20
   48.48436        4.1763732E-20
   48.61120        4.1757257E-20
   48.73804        4.1755512E-20
   48.86489        4.1758359E-20
   48.99173        4.1765493E-20
   49.11858        4.1776250E-20
   49.24542        4.1789074E-20
   49.37226        4.1802629E-20
   49.49911        4.1815127E-20
   49.62595        4.1824892E-20
   49.75279        4.1831099E-20
   49.87964        4.1833002E-20
   50.00648        4.1829790E-20
   50.13332        4.1821240E-20
   50.26017        4.1807708E-20
   50.38701        4.1789549E-20
   50.51385        4.1767981E-20
   50.64070        4.1744859E-20
   50.76754        4.1720890E-20
   50.89439        4.1698126E-20
   51.02123        4.1677990E-20
   51.14808        4.1660961E-20
   51.27492        4.1648457E-20
   51.40176        4.1640569E-20
   51.52861        4.1637015E-20
   51.65545        4.1636559E-20
   51.78229        4.1638996E-20
   51.90914        4.1643477E-20
   52.03598        4.1648334E-20
   52.16282        4.1652321E-20
   52.28967        4.1653591E-20
   52.41651        4.1652147E-20
   52.54335        4.1646990E-20
   52.67020        4.1638566E-20
   52.79704        4.1626313E-20
   52.92389        4.1611479E-20
   53.05073        4.1595194E-20
   53.17757        4.1578809E-20
   53.30442        4.1562969E-20
   53.43126        4.1549376E-20
   53.55810        4.1538781E-20
   53.68495        4.1531766E-20
   53.81179        4.1528658E-20
   53.93863        4.1529750E-20
   54.06548        4.1534332E-20
   54.19232        4.1541062E-20
   54.31916        4.1549234E-20
   54.44601        4.1557182E-20
   54.57285        4.1564630E-20
   54.69970        4.1569038E-20
   54.82654        4.1570721E-20
   54.95338        4.1568146E-20
   55.08023        4.1561809E-20
   55.20707        4.1551489E-20
   55.33392        4.1538180E-20
   55.46076        4.1523145E-20
   55.58760        4.1506905E-20
   55.71444        4.1492397E-20
   55.84129        4.1479967E-20
   55.96813        4.1472093E-20
   56.09497        4.1468939E-20
   56.22182        4.1471941E-20
   56.34866        4.1480397E-20
   56.47551        4.1494637E-20
   56.60235        4.1513571E-20
   56.72919        4.1535966E-20
   56.85604        4.1559997E-20
   56.98288        4.1583843E-20
   57.10973        4.1606290E-20
   57.23657        4.1625955E-20
   57.36341        4.1641073E-20
   57.49026        4.1650806E-20
   57.61710        4.1654825E-20
   57.74394        4.1653352E-20
   57.87079        4.1646744E-20
   57.99763        4.1635884E-20
   58.12447        4.1622103E-20
   58.25132        4.1606358E-20
   58.37816        4.1590661E-20
   58.50500        4.1575771E-20
   58.63185        4.1563606E-20
   58.75869        4.1554362E-20
   58.88554        4.1549431E-20
   59.01238        4.1549140E-20
   59.13923        4.1552998E-20
   59.26607        4.1560074E-20
   59.39291        4.1570760E-20
   59.51975        4.1582411E-20
   59.64660        4.1594599E-20
   59.77344        4.1605560E-20
   59.90028        4.1613996E-20
   60.02713        4.1617854E-20
   60.15397        4.1617108E-20
   60.28082        4.1611240E-20
   60.40766        4.1600015E-20
   60.53450        4.1583339E-20
   60.66135        4.1561945E-20
   60.78819        4.1537631E-20
   60.91504        4.1510279E-20
   61.04188        4.1482158E-20
   61.16872        4.1454066E-20
   61.29557        4.1427722E-20
   61.42241        4.1404920E-20
   61.54925        4.1386076E-20
   61.67610        4.1371823E-20
   61.80294        4.1362785E-20
   61.92978        4.1358859E-20
   62.05663        4.1359667E-20
   62.18347        4.1363968E-20
   62.31031        4.1371025E-20
   62.43716        4.1379975E-20
   62.56400        4.1389181E-20
   62.69085        4.1398470E-20
   62.81769        4.1405808E-20
   62.94453        4.1410881E-20
   63.07138        4.1413673E-20
   63.19822        4.1413499E-20
   63.32506        4.1410758E-20
   63.45191        4.1406031E-20
   63.57875        4.1399249E-20
   63.70559        4.1391543E-20
   63.83244        4.1383904E-20
   63.95928        4.1376973E-20
   64.08613        4.1371328E-20
   64.21297        4.1367244E-20
   64.33981        4.1364304E-20
   64.46666        4.1362585E-20
   64.59350        4.1362346E-20
   64.72034        4.1362847E-20
   64.84719        4.1364866E-20
   64.97403        4.1367099E-20
   65.10088        4.1370120E-20
   65.22771        4.1372841E-20
   65.35456        4.1375691E-20
   65.48141        4.1377623E-20
   65.60825        4.1378931E-20
   65.73509        4.1379610E-20
   65.86194        4.1380224E-20
   65.98878        4.1379591E-20
   66.11562        4.1377306E-20
   66.24247        4.1373797E-20
   66.36931        4.1368941E-20
   66.49615        4.1362850E-20
   66.62300        4.1355102E-20
   66.74984        4.1346510E-20
   66.87669        4.1336865E-20
   67.00353        4.1326386E-20
   67.13037        4.1315814E-20
   67.25722        4.1304640E-20
   67.38406        4.1294436E-20
   67.51090        4.1284678E-20
   67.63775        4.1276558E-20
   67.76459        4.1270748E-20
   67.89143        4.1266645E-20
   68.01828        4.1265553E-20
   68.14512        4.1266554E-20
   68.27197        4.1270865E-20
   68.39881        4.1278277E-20
   68.52565        4.1288488E-20
   68.65250        4.1301396E-20
   68.77934        4.1316069E-20
   68.90618        4.1332002E-20
   69.03303        4.1348484E-20
   69.15987        4.1364672E-20
   69.28671        4.1379251E-20
   69.41356        4.1392480E-20
   69.54041        4.1402988E-20
   69.66724        4.1411127E-20
   69.79409        4.1416542E-20
   69.92093        4.1419764E-20
   70.04778        4.1420875E-20
   70.17462        4.1420652E-20
   70.30146        4.1420035E-20
   70.42831        4.1419857E-20
   70.55515        4.1420759E-20
   70.68199        4.1422837E-20
   70.80884        4.1426759E-20
   70.93568        4.1432559E-20
   71.06252        4.1438589E-20
   71.18937        4.1445494E-20
   71.31622        4.1451668E-20
   71.44305        4.1456854E-20
   71.56990        4.1459575E-20
   71.69675        4.1459194E-20
   71.82359        4.1455333E-20
   71.95043        4.1446789E-20
   72.07728        4.1434634E-20
   72.20412        4.1418827E-20
   72.33096        4.1399676E-20
   72.45780        4.1378851E-20
   72.58465        4.1357480E-20
   72.71149        4.1335834E-20
   72.83833        4.1315142E-20
   72.96518        4.1297015E-20
   73.09203        4.1281030E-20
   73.21886        4.1267239E-20
   73.34571        4.1256121E-20
   73.47256        4.1247242E-20
   73.59940        4.1238957E-20
   73.72624        4.1231548E-20
   73.85309        4.1223816E-20
   73.97993        4.1214613E-20
   74.10677        4.1203786E-20
   74.23362        4.1191184E-20
   74.36046        4.1177342E-20
   74.48730        4.1161502E-20
   74.61415        4.1145049E-20
   74.74099        4.1128060E-20
   74.86784        4.1111891E-20
   74.99467        4.1097060E-20
   75.12152        4.1084342E-20
   75.24837        4.1074228E-20
   75.37521        4.1066386E-20
   75.50205        4.1061036E-20
   75.62890        4.1058098E-20
   75.75574        4.1056690E-20
   75.88258        4.1057245E-20
   76.00943        4.1058415E-20
   76.13627        4.1059601E-20
   76.26311        4.1060519E-20
   76.38996        4.1061546E-20
   76.51680        4.1062270E-20
   76.64365        4.1063071E-20
   76.77049        4.1065401E-20
   76.89733        4.1068894E-20
   77.02418        4.1074396E-20
   77.15102        4.1081896E-20
   77.27786        4.1090921E-20
   77.40471        4.1102521E-20
   77.53155        4.1115765E-20
   77.65839        4.1129853E-20
   77.78524        4.1144164E-20
   77.91208        4.1157179E-20
   78.03893        4.1168462E-20
   78.16577        4.1176718E-20
   78.29261        4.1181749E-20
   78.41946        4.1182899E-20
   78.54630        4.1179969E-20
   78.67314        4.1173089E-20
   78.79999        4.1161939E-20
   78.92683        4.1147932E-20
   79.05367        4.1130619E-20
   79.18052        4.1111423E-20
   79.30737        4.1090313E-20
   79.43420        4.1068357E-20
   79.56105        4.1046531E-20
   79.68790        4.1025044E-20
   79.81474        4.1004038E-20
   79.94158        4.0982932E-20
   80.06842        4.0961893E-20
   80.19527        4.0941217E-20
   80.32211        4.0920059E-20
   80.44895        4.0898388E-20
   80.57580        4.0875996E-20
   80.70264        4.0853326E-20
   80.82948        4.0830414E-20
   80.95633        4.0807912E-20
   81.08318        4.0787190E-20
   81.21001        4.0768210E-20
   81.33686        4.0751819E-20
   81.46371        4.0739498E-20
   81.59055        4.0731007E-20
   81.71739        4.0727436E-20
   81.84424        4.0728519E-20
   81.97108        4.0733692E-20
   82.09792        4.0742807E-20
   82.22476        4.0754717E-20
   82.35161        4.0768275E-20
   82.47845        4.0782906E-20
   82.60529        4.0796684E-20
   82.73214        4.0809133E-20
   82.85899        4.0819214E-20
   82.98582        4.0826368E-20
   83.11267        4.0830139E-20
   83.23952        4.0830873E-20
   83.36636        4.0828869E-20
   83.49320        4.0824678E-20
   83.62005        4.0818933E-20
   83.74689        4.0812158E-20
   83.87373        4.0805799E-20
   84.00058        4.0799672E-20
   84.12742        4.0794680E-20
   84.25426        4.0791714E-20
   84.38111        4.0790270E-20
   84.50795        4.0790337E-20
   84.63480        4.0792622E-20
   84.76163        4.0796764E-20
   84.88848        4.0801556E-20
   85.01533        4.0807056E-20
   85.14217        4.0812982E-20
   85.26901        4.0817295E-20
   85.39586        4.0820374E-20
   85.52270        4.0821418E-20
   85.64954        4.0819929E-20
   85.77639        4.0816132E-20
   85.90323        4.0810086E-20
   86.03008        4.0801369E-20
   86.15692        4.0790974E-20
   86.28376        4.0779251E-20
   86.41061        4.0766834E-20
   86.53745        4.0753845E-20
   86.66429        4.0741841E-20
   86.79114        4.0731336E-20
   86.91798        4.0723074E-20
   87.04482        4.0717287E-20
   87.17167        4.0714909E-20
   87.29851        4.0715468E-20
   87.42535        4.0718925E-20
   87.55220        4.0725517E-20
   87.67904        4.0734903E-20
   87.80589        4.0745838E-20
   87.93273        4.0757422E-20
   88.05957        4.0769619E-20
   88.18642        4.0781200E-20
   88.31326        4.0791607E-20
   88.44010        4.0799533E-20
   88.56695        4.0805404E-20
   88.69379        4.0808102E-20
   88.82063        4.0807450E-20
   88.94748        4.0803081E-20
   89.07433        4.0796302E-20
   89.20116        4.0786573E-20
   89.32801        4.0774850E-20
   89.45486        4.0762398E-20
   89.58170        4.0749302E-20
   89.70854        4.0736816E-20
   89.83538        4.0724809E-20
   89.96223        4.0713859E-20
   90.08907        4.0704062E-20
   90.21591        4.0694834E-20
   90.34276        4.0686362E-20
   90.46960        4.0678519E-20
   90.59644        4.0671414E-20
   90.72329        4.0663126E-20
   90.85014        4.0654337E-20
   90.97697        4.0645374E-20
   91.10382        4.0635177E-20
   91.23067        4.0623722E-20
   91.35751        4.0611948E-20
   91.48435        4.0600752E-20
   91.61120        4.0589959E-20
   91.73804        4.0581772E-20
   91.86488        4.0576214E-20
   91.99173        4.0573484E-20
   92.11857        4.0574821E-20
   92.24541        4.0580644E-20
   92.37225        4.0590964E-20
   92.49910        4.0605692E-20
   92.62595        4.0624443E-20
   92.75278        4.0647623E-20
   92.87963        4.0672942E-20
   93.00648        4.0700530E-20
   93.13332        4.0729003E-20
   93.26016        4.0757809E-20
   93.38701        4.0785410E-20
   93.51385        4.0812067E-20
   93.64069        4.0835823E-20
   93.76754        4.0857530E-20
   93.89438        4.0876309E-20
   94.02122        4.0892174E-20
   94.14807        4.0905345E-20
   94.27491        4.0916434E-20
   94.40176        4.0925927E-20
   94.52859        4.0934396E-20
   94.65544        4.0942558E-20
   94.78229        4.0950678E-20
   94.90913        4.0958404E-20
   95.03597        4.0966336E-20
   95.16282        4.0974014E-20
   95.28966        4.0981878E-20
   95.41650        4.0989358E-20
   95.54335        4.0996050E-20
   95.67019        4.1001527E-20
   95.79704        4.1005602E-20
   95.92388        4.1008006E-20
   96.05072        4.1008668E-20
   96.17757        4.1007909E-20
   96.30441        4.1005867E-20
   96.43125        4.1003517E-20
   96.55810        4.1000797E-20
   96.68494        4.0997666E-20
   96.81178        4.0994635E-20
   96.93863        4.0992199E-20
   97.06547        4.0990257E-20
   97.19231        4.0989785E-20
   97.31916        4.0989872E-20
   97.44600        4.0990919E-20
   97.57285        4.0992703E-20
   97.69969        4.0994693E-20
   97.82653        4.0996422E-20
   97.95338        4.0997359E-20
   98.08022        4.0997220E-20
   98.20706        4.0996738E-20
   98.33391        4.0994412E-20
   98.46075        4.0991371E-20
   98.58759        4.0986932E-20
   98.71444        4.0981571E-20
   98.84129        4.0976253E-20
   98.96812        4.0970812E-20
   99.09497        4.0966669E-20
   99.22182        4.0963894E-20
   99.34866        4.0962986E-20
   99.47550        4.0964349E-20
   99.60234        4.0967580E-20
   99.72919        4.0972837E-20
   99.85603        4.0979988E-20
   99.98287        4.0987827E-20
   100.1097        4.0996606E-20
   100.2366        4.1004797E-20
   100.3634        4.1012322E-20
   100.4902        4.1018193E-20
   100.6171        4.1021192E-20
   100.7439        4.1021764E-20
   100.8708        4.1019350E-20
   100.9976        4.1013663E-20
   101.1245        4.1004723E-20
   101.2513        4.0992777E-20
   101.3782        4.0978780E-20
   101.5050        4.0962908E-20
   101.6318        4.0946238E-20
   101.7587        4.0928609E-20
   101.8855        4.0911613E-20
   102.0124        4.0895221E-20
   102.1392        4.0879915E-20
   102.2661        4.0865650E-20
   102.3929        4.0853161E-20
   102.5197        4.0842072E-20
   102.6466        4.0832837E-20
   102.7734        4.0824604E-20
   102.9003        4.0817938E-20
   103.0271        4.0813214E-20
   103.1540        4.0809773E-20
   103.2808        4.0808904E-20
   103.4077        4.0811518E-20
   103.5345        4.0817221E-20
   103.6613        4.0827170E-20
   103.7882        4.0842175E-20
   103.9150        4.0862512E-20
   104.0419        4.0888342E-20
   104.1687        4.0917814E-20
   104.2956        4.0951832E-20
   104.4224        4.0988596E-20
   104.5492        4.1025619E-20
   104.6761        4.1061236E-20
   104.8029        4.1092792E-20
   104.9298        4.1118450E-20
   105.0566        4.1135682E-20
   105.1835        4.1141834E-20
   105.3103        4.1134542E-20
   105.4371        4.1112763E-20
   105.5640        4.1075825E-20
   105.6908        4.1022959E-20
   105.8177        4.0955250E-20
   105.9445        4.0873492E-20
   106.0714        4.0779823E-20
   106.1982        4.0677191E-20
   106.3251        4.0569377E-20
   106.4519        4.0460622E-20
   106.5787        4.0355816E-20
   106.7056        4.0259940E-20
   106.8324        4.0178925E-20
   106.9593        4.0118004E-20
   107.0861        4.0082167E-20
   107.2130        4.0075960E-20
   107.3398        4.0103141E-20
   107.4667        4.0166986E-20
   107.5935        4.0269530E-20
   107.7203        4.0410532E-20
   107.8472        4.0589019E-20
   107.9740        4.0801239E-20