  -7.200000       -9.0316873E-19
  -7.073156       -9.0317669E-19
  -6.946313       -9.0319313E-19
  -6.819469       -9.0321671E-19
  -6.692626       -9.0324649E-19
  -6.565782       -9.0328030E-19
  -6.438938       -9.0331649E-19
  -6.312095       -9.0335278E-19
  -6.185251       -9.0338825E-19
  -6.058407       -9.0342092E-19
  -5.931563       -9.0344894E-19
  -5.804720       -9.0347076E-19
  -5.677876       -9.0348668E-19
  -5.551033       -9.0349671E-19
  -5.424189       -9.0350022E-19
  -5.297346       -9.0349898E-19
  -5.170502       -9.0349371E-19
  -5.043658       -9.0348513E-19
  -4.916814       -9.0347665E-19
  -4.789971       -9.0346879E-19
  -4.663127       -9.0346362E-19
  -4.536283       -9.0346238E-19
  -4.409440       -9.0346693E-19
  -4.282596       -9.0347768E-19
  -4.155753       -9.0349474E-19
  -4.028909       -9.0351832E-19
  -3.902065       -9.0354737E-19
  -3.775222       -9.0358129E-19
  -3.648378       -9.0361882E-19
  -3.521534       -9.0365811E-19
  -3.394691       -9.0369782E-19
  -3.267847       -9.0373483E-19
  -3.141004       -9.0376833E-19
  -3.014160       -9.0379615E-19
  -2.887316       -9.0381745E-19
  -2.760473       -9.0383161E-19
  -2.633629       -9.0383792E-19
  -2.506785       -9.0383658E-19
  -2.379942       -9.0382872E-19
  -2.253098       -9.0381517E-19
  -2.126254       -9.0379791E-19
  -1.999411       -9.0377847E-19
  -1.872567       -9.0375882E-19
  -1.745723       -9.0374052E-19
  -1.618880       -9.0372574E-19
  -1.492036       -9.0371571E-19
  -1.365193       -9.0371074E-19
  -1.238349       -9.0371250E-19
  -1.111505       -9.0372046E-19
 -0.9846617       -9.0373442E-19
 -0.8578180       -9.0375407E-19
 -0.7309744       -9.0377754E-19
 -0.6041307       -9.0380401E-19
 -0.4772871       -9.0383141E-19
 -0.3504435       -9.0385808E-19
 -0.2235998       -9.0388321E-19
 -9.6756198E-02   -9.0390420E-19
  3.0087441E-02   -9.0392033E-19
  0.1569311       -9.0393026E-19
  0.2837747       -9.0393408E-19
  0.4106184       -9.0393160E-19
  0.5374620       -9.0392291E-19
  0.6643056       -9.0390958E-19
  0.7911493       -9.0389210E-19
  0.9179929       -9.0387091E-19
   1.044837       -9.0384888E-19
   1.171680       -9.0382696E-19
   1.298524       -9.0380597E-19
   1.425367       -9.0378757E-19
   1.552211       -9.0377299E-19
   1.679055       -9.0376254E-19
   1.805898       -9.0375706E-19
   1.932742       -9.0375593E-19
   2.059586       -9.0375944E-19
   2.186429       -9.0376678E-19
   2.313273       -9.0377733E-19
   2.440117       -9.0378963E-19
   2.566960       -9.0380277E-19
   2.693804       -9.0381538E-19
   2.820647       -9.0382613E-19
   2.947491       -9.0383513E-19
   3.074335       -9.0384020E-19
   3.201178       -9.0384123E-19
   3.328022       -9.0383782E-19
   3.454866       -9.0382996E-19
   3.581709       -9.0381745E-19
   3.708553       -9.0380070E-19
   3.835397       -9.0378105E-19
   3.962240       -9.0375831E-19
   4.089084       -9.0373380E-19
   4.215928       -9.0370764E-19
   4.342771       -9.0368200E-19
   4.469615       -9.0365698E-19
   4.596458       -9.0363433E-19
   4.723302       -9.0361500E-19
   4.850146       -9.0359918E-19
   4.976989       -9.0358708E-19
   5.103833       -9.0357829E-19
   5.230677       -9.0357271E-19
   5.357520       -9.0357002E-19
   5.484364       -9.0356898E-19
   5.611207       -9.0356960E-19
   5.738051       -9.0356929E-19
   5.864895       -9.0356723E-19
   5.991738       -9.0356206E-19
   6.118582       -9.0355306E-19
   6.245426       -9.0353952E-19
   6.372270       -9.0352080E-19
   6.499113       -9.0349650E-19
   6.625957       -9.0346672E-19
   6.752800       -9.0343250E-19
   6.879644       -9.0339424E-19
   7.006487       -9.0335247E-19
   7.133331       -9.0330915E-19
   7.260175       -9.0326582E-19
   7.387019       -9.0322291E-19
   7.513862       -9.0318259E-19
   7.640706       -9.0314474E-19
   7.767550       -9.0311042E-19
   7.894393       -9.0308033E-19
   8.021236       -9.0305437E-19
   8.148081       -9.0303266E-19
   8.274924       -9.0301374E-19
   8.401768       -9.0299720E-19
   8.528611       -9.0298189E-19
   8.655455       -9.0296711E-19
   8.782298       -9.0295108E-19
   8.909142       -9.0293257E-19
   9.035986       -9.0291086E-19
   9.162829       -9.0288553E-19
   9.289673       -9.0285595E-19
   9.416516       -9.0282225E-19
   9.543361       -9.0278492E-19
   9.670204       -9.0274418E-19
   9.797048       -9.0270210E-19
   9.923891       -9.0265940E-19
   10.05073       -9.0261742E-19
   10.17758       -9.0257668E-19
   10.30442       -9.0253894E-19
   10.43127       -9.0250389E-19
   10.55811       -9.0247359E-19
   10.68495       -9.0244712E-19
   10.81180       -9.0242479E-19
   10.93864       -9.0240659E-19
   11.06548       -9.0239077E-19
   11.19233       -9.0237743E-19
   11.31917       -9.0236564E-19
   11.44602       -9.0235406E-19
   11.57286       -9.0234155E-19
   11.69970       -9.0232708E-19
   11.82655       -9.0231074E-19
   11.95339       -9.0229161E-19
   12.08023       -9.0226866E-19
   12.20708       -9.0224239E-19
   12.33392       -9.0221375E-19
   12.46076       -9.0218232E-19
   12.58761       -9.0214923E-19
   12.71445       -9.0211521E-19
   12.84130       -9.0208089E-19
   12.96814       -9.0204832E-19
   13.09498       -9.0201719E-19
   13.22183       -9.0198835E-19
   13.34867       -9.0196208E-19
   13.47551       -9.0193913E-19
   13.60236       -9.0191814E-19
   13.72920       -9.0190004E-19
   13.85604       -9.0188391E-19
   13.98289       -9.0186933E-19
   14.10973       -9.0185672E-19
   14.23658       -9.0184504E-19
   14.36342       -9.0183428E-19
   14.49026       -9.0182384E-19
   14.61711       -9.0181381E-19
   14.74395       -9.0180368E-19
   14.87079       -9.0179385E-19
   14.99764       -9.0178403E-19
   15.12448       -9.0177473E-19
   15.25132       -9.0176594E-19
   15.37817       -9.0175746E-19
   15.50501       -9.0174960E-19
   15.63186       -9.0174350E-19
   15.75870       -9.0173792E-19
   15.88554       -9.0173471E-19
   16.01239       -9.0173295E-19
   16.13923       -9.0173275E-19
   16.26607       -9.0173378E-19
   16.39292       -9.0173647E-19
   16.51976       -9.0173978E-19
   16.64660       -9.0174433E-19
   16.77345       -9.0174888E-19
   16.90029       -9.0175301E-19
   17.02714       -9.0175684E-19
   17.15398       -9.0176015E-19
   17.28082       -9.0176242E-19
   17.40767       -9.0176387E-19
   17.53451       -9.0176501E-19
   17.66135       -9.0176583E-19
   17.78820       -9.0176614E-19
   17.91504       -9.0176666E-19
   18.04188       -9.0176676E-19
   18.16873       -9.0176697E-19
   18.29557       -9.0176770E-19
   18.42241       -9.0176811E-19
   18.54926       -9.0176863E-19
   18.67610       -9.0176821E-19
   18.80295       -9.0176707E-19
   18.92979       -9.0176459E-19
   19.05663       -9.0176066E-19
   19.18348       -9.0175508E-19
   19.31032       -9.0174753E-19
   19.43716       -9.0173781E-19
   19.56401       -9.0172603E-19
   19.69085       -9.0171258E-19
   19.81770       -9.0169759E-19
   19.94454       -9.0168198E-19
   20.07138       -9.0166554E-19
   20.19823       -9.0164972E-19
   20.32507       -9.0163504E-19
   20.45191       -9.0162139E-19
   20.57876       -9.0160970E-19
   20.70560       -9.0160029E-19
   20.83245       -9.0159419E-19
   20.95929       -9.0159047E-19
   21.08613       -9.0158995E-19
   21.21297       -9.0159130E-19
   21.33982       -9.0159430E-19
   21.46666       -9.0159957E-19
   21.59351       -9.0160567E-19
   21.72035       -9.0161167E-19
   21.84719       -9.0161746E-19
   21.97404       -9.0162335E-19
   22.10088       -9.0162790E-19
   22.22772       -9.0163204E-19
   22.35457       -9.0163473E-19
   22.48141       -9.0163648E-19
   22.60826       -9.0163752E-19
   22.73510       -9.0163845E-19
   22.86194       -9.0163938E-19
   22.98879       -9.0164072E-19
   23.11563       -9.0164362E-19
   23.24247       -9.0164765E-19
   23.36932       -9.0165344E-19
   23.49616       -9.0166151E-19
   23.62300       -9.0167154E-19
   23.74985       -9.0168374E-19
   23.87669       -9.0169832E-19
   24.00353       -9.0171383E-19
   24.13038       -9.0173006E-19
   24.25722       -9.0174629E-19
   24.38407       -9.0176211E-19
   24.51091       -9.0177669E-19
   24.63775       -9.0178941E-19
   24.76460       -9.0179954E-19
   24.89144       -9.0180699E-19
   25.01828       -9.0181102E-19
   25.14513       -9.0181164E-19
   25.27197       -9.0180895E-19
   25.39882       -9.0180337E-19
   25.52566       -9.0179603E-19
   25.65250       -9.0178631E-19
   25.77935       -9.0177514E-19
   25.90619       -9.0176377E-19
   26.03303       -9.0175301E-19
   26.15988       -9.0174267E-19
   26.28672       -9.0173399E-19
   26.41356       -9.0172737E-19
   26.54041       -9.0172251E-19
   26.66725       -9.0171889E-19
   26.79410       -9.0171631E-19
   26.92094       -9.0171434E-19
   27.04778       -9.0171269E-19
   27.17463       -9.0171000E-19
   27.30147       -9.0170628E-19
   27.42831       -9.0170007E-19
   27.55516       -9.0169118E-19
   27.68200       -9.0167898E-19
   27.80884       -9.0166461E-19
   27.93569       -9.0164744E-19
   28.06253       -9.0162852E-19
   28.18937       -9.0160846E-19
   28.31622       -9.0158892E-19
   28.44306       -9.0157103E-19
   28.56991       -9.0155563E-19
   28.69675       -9.0154384E-19
   28.82359       -9.0153650E-19
   28.95044       -9.0153464E-19
   29.07728       -9.0153795E-19
   29.20412       -9.0154632E-19
   29.33097       -9.0155935E-19
   29.45781       -9.0157610E-19
   29.58466       -9.0159481E-19
   29.71150       -9.0161508E-19
   29.83834       -9.0163493E-19
   29.96519       -9.0165261E-19
   30.09203       -9.0166616E-19
   30.21887       -9.0167567E-19
   30.34572       -9.0167981E-19
   30.47256       -9.0167898E-19
   30.59941       -9.0167309E-19
   30.72625       -9.0166254E-19
   30.85309       -9.0164858E-19
   30.97993       -9.0163297E-19
   31.10678       -9.0161746E-19
   31.23362       -9.0160298E-19
   31.36047       -9.0159161E-19
   31.48731       -9.0158365E-19
   31.61415       -9.0158003E-19
   31.74100       -9.0158086E-19
   31.86784       -9.0158561E-19
   31.99468       -9.0159337E-19
   32.12153       -9.0160185E-19
   32.24837       -9.0161012E-19
   32.37521       -9.0161622E-19
   32.50206       -9.0161849E-19
   32.62890       -9.0161622E-19
   32.75574       -9.0160784E-19
   32.88259       -9.0159337E-19
   33.00943       -9.0157238E-19
   33.13628       -9.0154611E-19
   33.26312       -9.0151561E-19
   33.38997       -9.0148201E-19
   33.51681       -9.0144758E-19
   33.64365       -9.0141449E-19
   33.77050       -9.0138368E-19
   33.89734       -9.0135721E-19
   34.02418       -9.0133611E-19
   34.15103       -9.0132102E-19
   34.27787       -9.0131151E-19
   34.40471       -9.0130758E-19
   34.53156       -9.0130809E-19
   34.65840       -9.0131026E-19
   34.78524       -9.0131285E-19
   34.91209       -9.0131388E-19
   35.03893       -9.0131182E-19
   35.16578       -9.0130489E-19
   35.29262       -9.0129103E-19
   35.41946       -9.0126994E-19
   35.54631       -9.0124264E-19
   35.67315       -9.0120945E-19
   35.80000       -9.0117171E-19
   35.92684       -9.0113221E-19
   36.05368       -9.0109313E-19
   36.18052       -9.0105684E-19
   36.30737       -9.0102489E-19
   36.43421       -9.0099976E-19
   36.56105       -9.0098301E-19
   36.68790       -9.0097536E-19
   36.81474       -9.0097650E-19
   36.94159       -9.0098560E-19
   37.06843       -9.0100193E-19
   37.19527       -9.0102272E-19
   37.32212       -9.0104588E-19
   37.44896       -9.0106873E-19
   37.57581       -9.0108941E-19
   37.70265       -9.0110512E-19
   37.82949       -9.0111371E-19
   37.95634       -9.0111443E-19
   38.08318       -9.0110585E-19
   38.21002       -9.0108796E-19
   38.33687       -9.0106149E-19
   38.46371       -9.0102851E-19
   38.59055       -9.0099066E-19
   38.71740       -9.0095065E-19
   38.84424       -9.0091167E-19
   38.97108       -9.0087517E-19
   39.09793       -9.0084435E-19
   39.22477       -9.0082057E-19
   39.35162       -9.0080496E-19
   39.47846       -9.0079679E-19
   39.60530       -9.0079545E-19
   39.73215       -9.0079876E-19
   39.85899       -9.0080527E-19
   39.98583       -9.0081158E-19
   40.11268       -9.0081561E-19
   40.23952       -9.0081530E-19
   40.36636       -9.0080827E-19
   40.49321       -9.0079255E-19
   40.62005       -9.0076681E-19
   40.74689       -9.0073165E-19
   40.87374       -9.0068719E-19
   41.00058       -9.0063497E-19
   41.12743       -9.0057645E-19
   41.25427       -9.0051452E-19
   41.38111       -9.0045113E-19
   41.50796       -9.0038889E-19
   41.63480       -9.0033078E-19
   41.76165       -9.0027908E-19
   41.88849       -9.0023586E-19
   42.01533       -9.0020164E-19
   42.14218       -9.0017723E-19
   42.26902       -9.0016110E-19
   42.39586       -9.0015263E-19
   42.52271       -9.0014994E-19
   42.64955       -9.0015004E-19
   42.77639       -9.0015107E-19
   42.90324       -9.0014994E-19
   43.03008       -9.0014456E-19
   43.15693       -9.0013360E-19
   43.28377       -9.0011706E-19
   43.41061       -9.0009307E-19
   43.53746       -9.0006277E-19
   43.66430       -9.0002710E-19
   43.79114       -8.9998791E-19
   43.91799       -8.9994624E-19
   44.04483       -8.9990468E-19
   44.17167       -8.9986466E-19
   44.29852       -8.9982806E-19
   44.42536       -8.9979611E-19
   44.55220       -8.9976881E-19
   44.67905       -8.9974638E-19
   44.80589       -8.9972869E-19
   44.93274       -8.9971556E-19
   45.05958       -8.9970533E-19
   45.18642       -8.9969664E-19
   45.31327       -8.9968785E-19
   45.44011       -8.9967782E-19
   45.56696       -8.9966542E-19
   45.69380       -8.9964949E-19
   45.82064       -8.9962995E-19
   45.94748       -8.9960648E-19
   46.07433       -8.9957980E-19
   46.20117       -8.9955013E-19
   46.32801       -8.9951963E-19
   46.45486       -8.9948923E-19
   46.58170       -8.9946038E-19
   46.70855       -8.9943329E-19
   46.83539       -8.9941064E-19
   46.96223       -8.9939162E-19
   47.08908       -8.9937652E-19
   47.21592       -8.9936515E-19
   47.34277       -8.9935698E-19
   47.46961       -8.9935171E-19
   47.59645       -8.9934716E-19
   47.72330       -8.9934251E-19
   47.85014       -8.9933713E-19
   47.97698       -8.9933010E-19
   48.10383       -8.9932017E-19
   48.23067       -8.9930663E-19
   48.35751       -8.9929070E-19
   48.48436       -8.9927126E-19
   48.61120       -8.9924965E-19
   48.73804       -8.9922505E-19
   48.86489       -8.9919899E-19
   48.99173       -8.9917221E-19
   49.11858       -8.9914533E-19
   49.24542       -8.9911979E-19
   49.37226       -8.9909507E-19
   49.49911       -8.9907264E-19
   49.62595       -8.9905289E-19
   49.75279       -8.9903645E-19
   49.87964       -8.9902270E-19
   50.00648       -8.9901143E-19
   50.13332       -8.9900243E-19
   50.26017       -8.9899581E-19
   50.38701       -8.9899075E-19
   50.51385       -8.9898702E-19
   50.64070       -8.9898392E-19
   50.76754       -8.9898144E-19
   50.89439       -8.9897855E-19
   51.02123       -8.9897679E-19
   51.14808       -8.9897524E-19
   51.27492       -8.9897441E-19
   51.40176       -8.9897431E-19
   51.52861       -8.9897544E-19
   51.65545       -8.9897803E-19
   51.78229       -8.9898247E-19
   51.90914       -8.9898909E-19
   52.03598       -8.9899654E-19
   52.16282       -8.9900595E-19
   52.28967       -8.9901587E-19
   52.41651       -8.9902673E-19
   52.54335       -8.9903759E-19
   52.67020       -8.9904824E-19
   52.79704       -8.9905816E-19
   52.92389       -8.9906623E-19
   53.05073       -8.9907253E-19
   53.17757       -8.9907553E-19
   53.30442       -8.9907543E-19
   53.43126       -8.9907222E-19
   53.55810       -8.9906561E-19
   53.68495       -8.9905620E-19
   53.81179       -8.9904431E-19
   53.93863       -8.9903138E-19
   54.06548       -8.9901897E-19
   54.19232       -8.9900657E-19
   54.31916       -8.9899643E-19
   54.44601       -8.9898868E-19
   54.57285       -8.9898475E-19
   54.69970       -8.9898475E-19
   54.82654       -8.9898785E-19
   54.95338       -8.9899343E-19
   55.08023       -8.9900026E-19
   55.20707       -8.9900822E-19
   55.33392       -8.9901473E-19
   55.46076       -8.9901908E-19
   55.58760       -8.9902042E-19
   55.71444       -8.9901804E-19
   55.84129       -8.9901184E-19
   55.96813       -8.9900140E-19
   56.09497       -8.9898733E-19
   56.22182       -8.9897131E-19
   56.34866       -8.9895445E-19
   56.47551       -8.9893801E-19
   56.60235       -8.9892374E-19
   56.72919       -8.9891268E-19
   56.85604       -8.9890689E-19
   56.98288       -8.9890679E-19
   57.10973       -8.9891351E-19
   57.23657       -8.9892643E-19
   57.36341       -8.9894515E-19
   57.49026       -8.9896821E-19
   57.61710       -8.9899416E-19
   57.74394       -8.9902094E-19
   57.87079       -8.9904689E-19
   57.99763       -8.9906974E-19
   58.12447       -8.9908835E-19
   58.25132       -8.9910128E-19
   58.37816       -8.9910810E-19
   58.50500       -8.9910934E-19
   58.63185       -8.9910541E-19
   58.75869       -8.9909818E-19
   58.88554       -8.9908980E-19
   59.01238       -8.9908236E-19
   59.13923       -8.9907884E-19
   59.26607       -8.9907946E-19
   59.39291       -8.9908649E-19
   59.51975       -8.9910086E-19
   59.64660       -8.9912361E-19
   59.77344       -8.9915267E-19
   59.90028       -8.9918741E-19
   60.02713       -8.9922505E-19
   60.15397       -8.9926392E-19
   60.28082       -8.9930084E-19
   60.40766       -8.9933392E-19
   60.53450       -8.9935998E-19
   60.66135       -8.9937838E-19
   60.78819       -8.9938769E-19
   60.91504       -8.9938707E-19
   61.04188       -8.9937756E-19
   61.16872       -8.9935998E-19
   61.29557       -8.9933537E-19
   61.42241       -8.9930725E-19
   61.54925       -8.9927757E-19
   61.67610       -8.9924883E-19
   61.80294       -8.9922267E-19
   61.92978       -8.9920168E-19
   62.05663       -8.9918689E-19
   62.18347       -8.9917945E-19
   62.31031       -8.9917965E-19
   62.43716       -8.9918720E-19
   62.56400       -8.9920044E-19
   62.69085       -8.9921853E-19
   62.81769       -8.9923869E-19
   62.94453       -8.9925865E-19
   63.07138       -8.9927736E-19
   63.19822       -8.9929287E-19
   63.32506       -8.9930373E-19
   63.45191       -8.9930911E-19
   63.57875       -8.9930869E-19
   63.70559       -8.9930342E-19
   63.83244       -8.9929318E-19
   63.95928       -8.9927974E-19
   64.08613       -8.9926527E-19
   64.21297       -8.9925058E-19
   64.33981       -8.9923818E-19
   64.46666       -8.9922918E-19
   64.59350       -8.9922505E-19
   64.72034       -8.9922670E-19
   64.84719       -8.9923497E-19
   64.97403       -8.9924996E-19
   65.10088       -8.9927116E-19
   65.22771       -8.9929742E-19
   65.35456       -8.9932710E-19
   65.48141       -8.9935874E-19
   65.60825       -8.9938945E-19
   65.73509       -8.9941768E-19
   65.86194       -8.9944063E-19
   65.98878       -8.9945748E-19
   66.11562       -8.9946638E-19
   66.24247       -8.9946658E-19
   66.36931       -8.9945738E-19
   66.49615       -8.9943980E-19
   66.62300       -8.9941447E-19
   66.74984       -8.9938345E-19
   66.87669       -8.9934799E-19
   67.00353       -8.9931087E-19
   67.13037       -8.9927395E-19
   67.25722       -8.9923911E-19
   67.38406       -8.9920850E-19
   67.51090       -8.9918307E-19
   67.63775       -8.9916394E-19
   67.76459       -8.9915081E-19
   67.89143       -8.9914264E-19
   68.01828       -8.9913933E-19
   68.14512       -8.9913912E-19
   68.27197       -8.9913943E-19
   68.39881       -8.9913985E-19
   68.52565       -8.9913767E-19
   68.65250       -8.9913147E-19
   68.77934       -8.9912010E-19
   68.90618       -8.9910314E-19
   69.03303       -8.9907967E-19
   69.15987       -8.9905092E-19
   69.28671       -8.9901711E-19
   69.41356       -8.9897968E-19
   69.54041       -8.9893967E-19
   69.66724       -8.9889841E-19
   69.79409       -8.9885778E-19
   69.92093       -8.9881931E-19
   70.04778       -8.9878364E-19
   70.17462       -8.9875242E-19
   70.30146       -8.9872543E-19
   70.42831       -8.9870382E-19
   70.55515       -8.9868717E-19
   70.68199       -8.9867518E-19
   70.80884       -8.9866701E-19
   70.93568       -8.9866101E-19
   71.06252       -8.9865770E-19
   71.18937       -8.9865553E-19
   71.31622       -8.9865346E-19
   71.44305       -8.9865202E-19
   71.56990       -8.9864964E-19
   71.69675       -8.9864695E-19
   71.82359       -8.9864343E-19
   71.95043       -8.9863950E-19
   72.07728       -8.9863475E-19
   72.20412       -8.9863030E-19
   72.33096       -8.9862627E-19
   72.45780       -8.9862296E-19
   72.58465       -8.9862069E-19
   72.71149       -8.9861965E-19
   72.83833       -8.9862007E-19
   72.96518       -8.9862151E-19
   73.09203       -8.9862431E-19
   73.21886       -8.9862854E-19
   73.34571       -8.9863320E-19
   73.47256       -8.9863826E-19
   73.59940       -8.9864323E-19
   73.72624       -8.9864819E-19
   73.85309       -8.9865202E-19
   73.97993       -8.9865470E-19
   74.10677       -8.9865605E-19
   74.23362       -8.9865626E-19
   74.36046       -8.9865491E-19
   74.48730       -8.9865243E-19
   74.61415       -8.9864922E-19
   74.74099       -8.9864467E-19
   74.86784       -8.9863950E-19
   74.99467       -8.9863320E-19
   75.12152       -8.9862544E-19
   75.24837       -8.9861562E-19
   75.37521       -8.9860363E-19
   75.50205       -8.9858863E-19
   75.62890       -8.9857033E-19
   75.75574       -8.9854893E-19
   75.88258       -8.9852401E-19
   76.00943       -8.9849589E-19
   76.13627       -8.9846373E-19
   76.26311       -8.9842909E-19
   76.38996       -8.9839228E-19
   76.51680       -8.9835475E-19
   76.64365       -8.9831856E-19
   76.77049       -8.9828371E-19
   76.89733       -8.9825187E-19
   77.02418       -8.9822509E-19
   77.15102       -8.9820348E-19
   77.27786       -8.9818807E-19
   77.40471       -8.9817949E-19
   77.53155       -8.9817721E-19
   77.65839       -8.9818052E-19
   77.78524       -8.9818973E-19
   77.91208       -8.9820265E-19
   78.03893       -8.9821744E-19
   78.16577       -8.9823357E-19
   78.29261       -8.9824835E-19
   78.41946       -8.9826097E-19
   78.54630       -8.9827017E-19
   78.67314       -8.9827472E-19
   78.79999       -8.9827410E-19
   78.92683       -8.9826862E-19
   79.05367       -8.9825848E-19
   79.18052       -8.9824391E-19
   79.30737       -8.9822664E-19
   79.43420       -8.9820772E-19
   79.56105       -8.9818848E-19
   79.68790       -8.9816977E-19
   79.81474       -8.9815395E-19
   79.94158       -8.9814123E-19
   80.06842       -8.9813265E-19
   80.19527       -8.9812831E-19
   80.32211       -8.9812748E-19
   80.44895       -8.9812996E-19
   80.57580       -8.9813430E-19
   80.70264       -8.9813916E-19
   80.82948       -8.9814227E-19
   80.95633       -8.9814289E-19
   81.08318       -8.9813937E-19
   81.21001       -8.9812996E-19
   81.33686       -8.9811404E-19
   81.46371       -8.9809026E-19
   81.59055       -8.9805944E-19
   81.71739       -8.9802191E-19
   81.84424       -8.9797890E-19
   81.97108       -8.9793102E-19
   82.09792       -8.9788181E-19
   82.22476       -8.9783249E-19
   82.35161       -8.9778606E-19
   82.47845       -8.9774408E-19
   82.60529       -8.9770758E-19
   82.73214       -8.9767780E-19
   82.85899       -8.9765609E-19
   82.98582       -8.9764182E-19
   83.11267       -8.9763407E-19
   83.23952       -8.9763190E-19
   83.36636       -8.9763417E-19
   83.49320       -8.9763748E-19
   83.62005       -8.9764089E-19
   83.74689       -8.9764182E-19
   83.87373       -8.9763882E-19
   84.00058       -8.9763024E-19
   84.12742       -8.9761618E-19
   84.25426       -8.9759622E-19
   84.38111       -8.9757037E-19
   84.50795       -8.9753956E-19
   84.63480       -8.9750534E-19
   84.76163       -8.9746853E-19
   84.88848       -8.9743099E-19
   85.01533       -8.9739418E-19
   85.14217       -8.9735986E-19
   85.26901       -8.9732853E-19
   85.39586       -8.9730154E-19
   85.52270       -8.9727879E-19
   85.64954       -8.9725997E-19
   85.77639       -8.9724395E-19
   85.90323       -8.9723113E-19
   86.03008       -8.9722027E-19
   86.15692       -8.9720993E-19
   86.28376       -8.9720000E-19
   86.41061       -8.9719070E-19
   86.53745       -8.9718067E-19
   86.66429       -8.9717054E-19
   86.79114       -8.9716020E-19
   86.91798       -8.9714986E-19
   87.04482       -8.9714024E-19
   87.17167       -8.9713114E-19
   87.29851       -8.9712287E-19
   87.42535       -8.9711542E-19
   87.55220       -8.9710881E-19
   87.67904       -8.9710353E-19
   87.80589       -8.9709836E-19
   87.93273       -8.9709371E-19
   88.05957       -8.9708885E-19
   88.18642       -8.9708306E-19
   88.31326       -8.9707675E-19
   88.44010       -8.9706983E-19
   88.56695       -8.9706217E-19
   88.69379       -8.9705432E-19
   88.82063       -8.9704615E-19
   88.94748       -8.9703777E-19
   89.07433       -8.9702991E-19
   89.20116       -8.9702226E-19
   89.32801       -8.9701606E-19
   89.45486       -8.9701161E-19
   89.58170       -8.9700903E-19
   89.70854       -8.9700768E-19
   89.83538       -8.9700820E-19
   89.96223       -8.9701068E-19
   90.08907       -8.9701430E-19
   90.21591       -8.9701916E-19
   90.34276       -8.9702454E-19
   90.46960       -8.9702950E-19
   90.59644       -8.9703322E-19
   90.72329       -8.9703436E-19
   90.85014       -8.9703302E-19
   90.97697       -8.9702723E-19
   91.10382       -8.9701720E-19
   91.23067       -8.9700231E-19
   91.35751       -8.9698225E-19
   91.48435       -8.9695681E-19
   91.61120       -8.9692683E-19
   91.73804       -8.9689343E-19
   91.86488       -8.9685745E-19
   91.99173       -8.9681981E-19
   92.11857       -8.9678279E-19
   92.24541       -8.9674816E-19
   92.37225       -8.9671641E-19
   92.49910       -8.9668912E-19
   92.62595       -8.9666658E-19
   92.75278       -8.9664972E-19
   92.87963       -8.9663793E-19
   93.00648       -8.9663080E-19
   93.13332       -8.9662708E-19
   93.26016       -8.9662594E-19
   93.38701       -8.9662604E-19
   93.51385       -8.9662625E-19
   93.64069       -8.9662491E-19
   93.76754       -8.9662149E-19
   93.89438       -8.9661570E-19
   94.02122       -8.9660640E-19
   94.14807       -8.9659430E-19
   94.27491       -8.9657951E-19
   94.40176       -8.9656287E-19
   94.52859       -8.9654591E-19
   94.65544       -8.9652957E-19
   94.78229       -8.9651489E-19
   94.90913       -8.9650331E-19
   95.03597       -8.9649525E-19
   95.16282       -8.9649163E-19
   95.28966       -8.9649328E-19
   95.41650       -8.9649886E-19
   95.54335       -8.9650827E-19
   95.67019       -8.9652058E-19
   95.79704       -8.9653433E-19
   95.92388       -8.9654839E-19
   96.05072       -8.9656049E-19
   96.17757       -8.9657000E-19
   96.30441       -8.9657507E-19
   96.43125       -8.9657538E-19
   96.55810       -8.9656990E-19
   96.68494       -8.9655904E-19
   96.81178       -8.9654271E-19
   96.93863       -8.9652141E-19
   97.06547       -8.9649545E-19
   97.19231       -8.9646650E-19
   97.31916       -8.9643548E-19
   97.44600       -8.9640457E-19
   97.57285       -8.9637427E-19
   97.69969       -8.9634656E-19
   97.82653       -8.9632185E-19
   97.95338       -8.9630086E-19
   98.08022       -8.9628463E-19
   98.20706       -8.9627408E-19
   98.33391       -8.9626787E-19
   98.46075       -8.9626705E-19
   98.58759       -8.9627098E-19
   98.71444       -8.9627883E-19
   98.84129       -8.9629052E-19
   98.96812       -8.9630458E-19
   99.09497       -8.9632040E-19
   99.22182       -8.9633756E-19
   99.34866       -8.9635432E-19
   99.47550       -8.9637045E-19
   99.60234       -8.9638451E-19
   99.72919       -8.9639743E-19
   99.85603       -8.9640736E-19
   99.98287       -8.9641470E-19
   100.1097       -8.9641946E-19
   100.2366       -8.9642194E-19
   100.3634       -8.9642152E-19
   100.4902       -8.9641915E-19
   100.6171       -8.9641449E-19
   100.7439       -8.9640819E-19
   100.8708       -8.9640043E-19
   100.9976       -8.9639154E-19
   101.1245       -8.9638285E-19
   101.2513       -8.9637417E-19
   101.3782       -8.9636631E-19
   101.5050       -8.9636011E-19
   101.6318       -8.9635659E-19
   101.7587       -8.9635597E-19
   101.8855       -8.9635845E-19
   102.0124       -8.9636424E-19
   102.1392       -8.9637272E-19
   102.2661       -8.9638471E-19
   102.3929       -8.9639795E-19
   102.5197       -8.9641253E-19
   102.6466       -8.9642649E-19
   102.7734       -8.9643858E-19
   102.9003       -8.9644758E-19
   103.0271       -8.9645203E-19
   103.1540       -8.9645089E-19
   103.2808       -8.9644324E-19
   103.4077       -8.9642866E-19
   103.5345       -8.9640694E-19
   103.6613       -8.9637851E-19
   103.7882       -8.9634387E-19
   103.9150       -8.9630427E-19
   104.0419       -8.9626095E-19
   104.1687       -8.9621483E-19
   104.2956       -8.9616779E-19
   104.4224       -8.9612188E-19
   104.5492       -8.9607835E-19
   104.6761       -8.9603875E-19
   104.8029       -8.9600504E-19
   104.9298       -8.9597712E-19
   105.0566       -8.9595572E-19
   105.1835       -8.9594135E-19
   105.3103       -8.9593411E-19
   105.4371       -8.9593266E-19
   105.5640       -8.9593587E-19
   105.6908       -8.9594352E-19
   105.8177       -8.9595406E-19
   105.9445       -8.9596761E-19
   106.0714       -8.9598260E-19
   106.1982       -8.9599945E-19
   106.3251       -8.9601848E-19
   106.4519       -8.9603968E-19
   106.5787       -8.9606460E-19
   106.7056       -8.9609406E-19
   106.8324       -8.9612922E-19
   106.9593       -8.9617182E-19
   107.0861       -8.9622073E-19
   107.2130       -8.9627801E-19
   107.3398       -8.9634335E-19
   107.4667       -8.9641635E-19
   107.5935       -8.9649514E-19
   107.7203       -8.9657755E-19
   107.8472       -8.9666213E-19
   107.9740       -8.9674516E-19