  -7.200000        1.0997798E-17
  -7.073156        1.0997798E-17
  -6.946313        1.0997797E-17
  -6.819469        1.0997796E-17
  -6.692626        1.0997796E-17
  -6.565782        1.0997796E-17
  -6.438938        1.0997796E-17
  -6.312095        1.0997796E-17
  -6.185251        1.0997796E-17
  -6.058407        1.0997797E-17
  -5.931563        1.0997797E-17
  -5.804720        1.0997798E-17
  -5.677876        1.0997799E-17
  -5.551033        1.0997800E-17
  -5.424189        1.0997801E-17
  -5.297346        1.0997801E-17
  -5.170502        1.0997804E-17
  -5.043658        1.0997807E-17
  -4.916814        1.0997810E-17
  -4.789971        1.0997814E-17
  -4.663127        1.0997817E-17
  -4.536283        1.0997820E-17
  -4.409440        1.0997822E-17
  -4.282596        1.0997824E-17
  -4.155753        1.0997825E-17
  -4.028909        1.0997827E-17
  -3.902065        1.0997829E-17
  -3.775222        1.0997832E-17
  -3.648378        1.0997835E-17
  -3.521534        1.0997840E-17
  -3.394691        1.0997847E-17
  -3.267847        1.0997854E-17
  -3.141004        1.0997863E-17
  -3.014160        1.0997872E-17
  -2.887316        1.0997882E-17
  -2.760473        1.0997891E-17
  -2.633629        1.0997898E-17
  -2.506785        1.0997906E-17
  -2.379942        1.0997910E-17
  -2.253098        1.0997913E-17
  -2.126254        1.0997916E-17
  -1.999411        1.0997920E-17
  -1.872567        1.0997923E-17
  -1.745723        1.0997926E-17
  -1.618880        1.0997931E-17
  -1.492036        1.0997936E-17
  -1.365193        1.0997941E-17
  -1.238349        1.0997946E-17
  -1.111505        1.0997951E-17
 -0.9846617        1.0997955E-17
 -0.8578180        1.0997959E-17
 -0.7309744        1.0997963E-17
 -0.6041307        1.0997968E-17
 -0.4772871        1.0997972E-17
 -0.3504435        1.0997978E-17
 -0.2235998        1.0997985E-17
 -9.6756198E-02    1.0997993E-17
  3.0087441E-02    1.0998004E-17
  0.1569311        1.0998015E-17
  0.2837747        1.0998026E-17
  0.4106184        1.0998036E-17
  0.5374620        1.0998045E-17
  0.6643056        1.0998054E-17
  0.7911493        1.0998060E-17
  0.9179929        1.0998065E-17
   1.044837        1.0998069E-17
   1.171680        1.0998072E-17
   1.298524        1.0998075E-17
   1.425367        1.0998078E-17
   1.552211        1.0998083E-17
   1.679055        1.0998090E-17
   1.805898        1.0998098E-17
   1.932742        1.0998107E-17
   2.059586        1.0998116E-17
   2.186429        1.0998126E-17
   2.313273        1.0998135E-17
   2.440117        1.0998143E-17
   2.566960        1.0998151E-17
   2.693804        1.0998160E-17
   2.820647        1.0998168E-17
   2.947491        1.0998177E-17
   3.074335        1.0998187E-17
   3.201178        1.0998198E-17
   3.328022        1.0998211E-17
   3.454866        1.0998223E-17
   3.581709        1.0998235E-17
   3.708553        1.0998244E-17
   3.835397        1.0998250E-17
   3.962240        1.0998255E-17
   4.089084        1.0998257E-17
   4.215928        1.0998256E-17
   4.342771        1.0998255E-17
   4.469615        1.0998252E-17
   4.596458        1.0998250E-17
   4.723302        1.0998249E-17
   4.850146        1.0998249E-17
   4.976989        1.0998250E-17
   5.103833        1.0998252E-17
   5.230677        1.0998256E-17
   5.357520        1.0998260E-17
   5.484364        1.0998265E-17
   5.611207        1.0998270E-17
   5.738051        1.0998274E-17
   5.864895        1.0998279E-17
   5.991738        1.0998282E-17
   6.118582        1.0998285E-17
   6.245426        1.0998289E-17
   6.372270        1.0998292E-17
   6.499113        1.0998296E-17
   6.625957        1.0998300E-17
   6.752800        1.0998304E-17
   6.879644        1.0998308E-17
   7.006487        1.0998311E-17
   7.133331        1.0998312E-17
   7.260175        1.0998311E-17
   7.387019        1.0998308E-17
   7.513862        1.0998305E-17
   7.640706        1.0998301E-17
   7.767550        1.0998298E-17
   7.894393        1.0998298E-17
   8.021236        1.0998300E-17
   8.148081        1.0998304E-17
   8.274924        1.0998311E-17
   8.401768        1.0998321E-17
   8.528611        1.0998331E-17
   8.655455        1.0998342E-17
   8.782298        1.0998355E-17
   8.909142        1.0998367E-17
   9.035986        1.0998379E-17
   9.162829        1.0998389E-17
   9.289673        1.0998399E-17
   9.416516        1.0998408E-17
   9.543361        1.0998415E-17
   9.670204        1.0998423E-17
   9.797048        1.0998429E-17
   9.923891        1.0998435E-17
   10.05073        1.0998441E-17
   10.17758        1.0998446E-17
   10.30442        1.0998449E-17
   10.43127        1.0998452E-17
   10.55811        1.0998452E-17
   10.68495        1.0998453E-17
   10.81180        1.0998454E-17
   10.93864        1.0998456E-17
   11.06548        1.0998458E-17
   11.19233        1.0998465E-17
   11.31917        1.0998474E-17
   11.44602        1.0998485E-17
   11.57286        1.0998499E-17
   11.69970        1.0998514E-17
   11.82655        1.0998529E-17
   11.95339        1.0998543E-17
   12.08023        1.0998557E-17
   12.20708        1.0998568E-17
   12.33392        1.0998579E-17
   12.46076        1.0998589E-17
   12.58761        1.0998599E-17
   12.71445        1.0998608E-17
   12.84130        1.0998618E-17
   12.96814        1.0998627E-17
   13.09498        1.0998637E-17
   13.22183        1.0998646E-17
   13.34867        1.0998653E-17
   13.47551        1.0998658E-17
   13.60236        1.0998662E-17
   13.72920        1.0998665E-17
   13.85604        1.0998667E-17
   13.98289        1.0998671E-17
   14.10973        1.0998676E-17
   14.23658        1.0998684E-17
   14.36342        1.0998696E-17
   14.49026        1.0998712E-17
   14.61711        1.0998730E-17
   14.74395        1.0998752E-17
   14.87079        1.0998774E-17
   14.99764        1.0998796E-17
   15.12448        1.0998817E-17
   15.25132        1.0998839E-17
   15.37817        1.0998858E-17
   15.50501        1.0998877E-17
   15.63186        1.0998894E-17
   15.75870        1.0998913E-17
   15.88554        1.0998934E-17
   16.01239        1.0998955E-17
   16.13923        1.0998978E-17
   16.26607        1.0999004E-17
   16.39292        1.0999031E-17
   16.51976        1.0999057E-17
   16.64660        1.0999082E-17
   16.77345        1.0999107E-17
   16.90029        1.0999132E-17
   17.02714        1.0999155E-17
   17.15398        1.0999179E-17
   17.28082        1.0999204E-17
   17.40767        1.0999230E-17
   17.53451        1.0999258E-17
   17.66135        1.0999286E-17
   17.78820        1.0999315E-17
   17.91504        1.0999343E-17
   18.04188        1.0999371E-17
   18.16873        1.0999394E-17
   18.29557        1.0999416E-17
   18.42241        1.0999435E-17
   18.54926        1.0999450E-17
   18.67610        1.0999463E-17
   18.80295        1.0999476E-17
   18.92979        1.0999487E-17
   19.05663        1.0999500E-17
   19.18348        1.0999513E-17
   19.31032        1.0999528E-17
   19.43716        1.0999543E-17
   19.56401        1.0999557E-17
   19.69085        1.0999572E-17
   19.81770        1.0999585E-17
   19.94454        1.0999595E-17
   20.07138        1.0999605E-17
   20.19823        1.0999612E-17
   20.32507        1.0999619E-17
   20.45191        1.0999628E-17
   20.57876        1.0999638E-17
   20.70560        1.0999649E-17
   20.83245        1.0999664E-17
   20.95929        1.0999682E-17
   21.08613        1.0999701E-17
   21.21297        1.0999723E-17
   21.33982        1.0999745E-17
   21.46666        1.0999768E-17
   21.59351        1.0999788E-17
   21.72035        1.0999808E-17
   21.84719        1.0999827E-17
   21.97404        1.0999847E-17
   22.10088        1.0999867E-17
   22.22772        1.0999888E-17
   22.35457        1.0999912E-17
   22.48141        1.0999937E-17
   22.60826        1.0999964E-17
   22.73510        1.0999993E-17
   22.86194        1.1000020E-17
   22.98879        1.1000047E-17
   23.11563        1.1000074E-17
   23.24247        1.1000098E-17
   23.36932        1.1000122E-17
   23.49616        1.1000145E-17
   23.62300        1.1000169E-17
   23.74985        1.1000193E-17
   23.87669        1.1000220E-17
   24.00353        1.1000250E-17
   24.13038        1.1000284E-17
   24.25722        1.1000319E-17
   24.38407        1.1000357E-17
   24.51091        1.1000395E-17
   24.63775        1.1000433E-17
   24.76460        1.1000471E-17
   24.89144        1.1000507E-17
   25.01828        1.1000542E-17
   25.14513        1.1000574E-17
   25.27197        1.1000605E-17
   25.39882        1.1000636E-17
   25.52566        1.1000667E-17
   25.65250        1.1000696E-17
   25.77935        1.1000727E-17
   25.90619        1.1000757E-17
   26.03303        1.1000785E-17
   26.15988        1.1000811E-17
   26.28672        1.1000835E-17
   26.41356        1.1000855E-17
   26.54041        1.1000874E-17
   26.66725        1.1000892E-17
   26.79410        1.1000908E-17
   26.92094        1.1000926E-17
   27.04778        1.1000945E-17
   27.17463        1.1000969E-17
   27.30147        1.1000996E-17
   27.42831        1.1001027E-17
   27.55516        1.1001061E-17
   27.68200        1.1001099E-17
   27.80884        1.1001137E-17
   27.93569        1.1001177E-17
   28.06253        1.1001216E-17
   28.18937        1.1001252E-17
   28.31622        1.1001286E-17
   28.44306        1.1001317E-17
   28.56991        1.1001345E-17
   28.69675        1.1001371E-17
   28.82359        1.1001395E-17
   28.95044        1.1001417E-17
   29.07728        1.1001439E-17
   29.20412        1.1001462E-17
   29.33097        1.1001486E-17
   29.45781        1.1001511E-17
   29.58466        1.1001538E-17
   29.71150        1.1001566E-17
   29.83834        1.1001596E-17
   29.96519        1.1001627E-17
   30.09203        1.1001661E-17
   30.21887        1.1001697E-17
   30.34572        1.1001734E-17
   30.47256        1.1001773E-17
   30.59941        1.1001815E-17
   30.72625        1.1001857E-17
   30.85309        1.1001899E-17
   30.97993        1.1001941E-17
   31.10678        1.1001980E-17
   31.23362        1.1002017E-17
   31.36047        1.1002051E-17
   31.48731        1.1002084E-17
   31.61415        1.1002113E-17
   31.74100        1.1002140E-17
   31.86784        1.1002166E-17
   31.99468        1.1002193E-17
   32.12153        1.1002221E-17
   32.24837        1.1002249E-17
   32.37521        1.1002279E-17
   32.50206        1.1002309E-17
   32.62890        1.1002342E-17
   32.75574        1.1002375E-17
   32.88259        1.1002409E-17
   33.00943        1.1002441E-17
   33.13628        1.1002472E-17
   33.26312        1.1002501E-17
   33.38997        1.1002527E-17
   33.51681        1.1002550E-17
   33.64365        1.1002569E-17
   33.77050        1.1002584E-17
   33.89734        1.1002596E-17
   34.02418        1.1002603E-17
   34.15103        1.1002607E-17
   34.27787        1.1002610E-17
   34.40471        1.1002611E-17
   34.53156        1.1002612E-17
   34.65840        1.1002615E-17
   34.78524        1.1002619E-17
   34.91209        1.1002626E-17
   35.03893        1.1002636E-17
   35.16578        1.1002649E-17
   35.29262        1.1002666E-17
   35.41946        1.1002685E-17
   35.54631        1.1002706E-17
   35.67315        1.1002729E-17
   35.80000        1.1002754E-17
   35.92684        1.1002781E-17
   36.05368        1.1002807E-17
   36.18052        1.1002835E-17
   36.30737        1.1002860E-17
   36.43421        1.1002885E-17
   36.56105        1.1002908E-17
   36.68790        1.1002929E-17
   36.81474        1.1002947E-17
   36.94159        1.1002962E-17
   37.06843        1.1002976E-17
   37.19527        1.1002989E-17
   37.32212        1.1003001E-17
   37.44896        1.1003014E-17
   37.57581        1.1003028E-17
   37.70265        1.1003046E-17
   37.82949        1.1003065E-17
   37.95634        1.1003087E-17
   38.08318        1.1003111E-17
   38.21002        1.1003135E-17
   38.33687        1.1003160E-17
   38.46371        1.1003180E-17
   38.59055        1.1003199E-17
   38.71740        1.1003212E-17
   38.84424        1.1003221E-17
   38.97108        1.1003225E-17
   39.09793        1.1003225E-17
   39.22477        1.1003222E-17
   39.35162        1.1003215E-17
   39.47846        1.1003206E-17
   39.60530        1.1003196E-17
   39.73215        1.1003184E-17
   39.85899        1.1003172E-17
   39.98583        1.1003160E-17
   40.11268        1.1003147E-17
   40.23952        1.1003137E-17
   40.36636        1.1003127E-17
   40.49321        1.1003119E-17
   40.62005        1.1003113E-17
   40.74689        1.1003109E-17
   40.87374        1.1003108E-17
   41.00058        1.1003107E-17
   41.12743        1.1003108E-17
   41.25427        1.1003107E-17
   41.38111        1.1003106E-17
   41.50796        1.1003104E-17
   41.63480        1.1003097E-17
   41.76165        1.1003088E-17
   41.88849        1.1003076E-17
   42.01533        1.1003062E-17
   42.14218        1.1003047E-17
   42.26902        1.1003032E-17
   42.39586        1.1003019E-17
   42.52271        1.1003008E-17
   42.64955        1.1003000E-17
   42.77639        1.1002997E-17
   42.90324        1.1002999E-17
   43.03008        1.1003003E-17
   43.15693        1.1003012E-17
   43.28377        1.1003023E-17
   43.41061        1.1003034E-17
   43.53746        1.1003045E-17
   43.66430        1.1003054E-17
   43.79114        1.1003061E-17
   43.91799        1.1003066E-17
   44.04483        1.1003066E-17
   44.17167        1.1003064E-17
   44.29852        1.1003058E-17
   44.42536        1.1003051E-17
   44.55220        1.1003041E-17
   44.67905        1.1003029E-17
   44.80589        1.1003018E-17
   44.93274        1.1003008E-17
   45.05958        1.1003000E-17
   45.18642        1.1002994E-17
   45.31327        1.1002990E-17
   45.44011        1.1002989E-17
   45.56696        1.1002991E-17
   45.69380        1.1002997E-17
   45.82064        1.1003004E-17
   45.94748        1.1003013E-17
   46.07433        1.1003021E-17
   46.20117        1.1003029E-17
   46.32801        1.1003036E-17
   46.45486        1.1003041E-17
   46.58170        1.1003044E-17
   46.70855        1.1003043E-17
   46.83539        1.1003040E-17
   46.96223        1.1003035E-17
   47.08908        1.1003027E-17
   47.21592        1.1003020E-17
   47.34277        1.1003013E-17
   47.46961        1.1003008E-17
   47.59645        1.1003007E-17
   47.72330        1.1003009E-17
   47.85014        1.1003017E-17
   47.97698        1.1003031E-17
   48.10383        1.1003051E-17
   48.23067        1.1003075E-17
   48.35751        1.1003105E-17
   48.48436        1.1003137E-17
   48.61120        1.1003172E-17
   48.73804        1.1003207E-17
   48.86489        1.1003240E-17
   48.99173        1.1003270E-17
   49.11858        1.1003296E-17
   49.24542        1.1003319E-17
   49.37226        1.1003338E-17
   49.49911        1.1003354E-17
   49.62595        1.1003369E-17
   49.75279        1.1003384E-17
   49.87964        1.1003400E-17
   50.00648        1.1003417E-17
   50.13332        1.1003438E-17
   50.26017        1.1003461E-17
   50.38701        1.1003487E-17
   50.51385        1.1003514E-17
   50.64070        1.1003543E-17
   50.76754        1.1003573E-17
   50.89439        1.1003602E-17
   51.02123        1.1003634E-17
   51.14808        1.1003667E-17
   51.27492        1.1003701E-17
   51.40176        1.1003735E-17
   51.52861        1.1003769E-17
   51.65545        1.1003802E-17
   51.78229        1.1003832E-17
   51.90914        1.1003860E-17
   52.03598        1.1003884E-17
   52.16282        1.1003905E-17
   52.28967        1.1003923E-17
   52.41651        1.1003940E-17
   52.54335        1.1003957E-17
   52.67020        1.1003977E-17
   52.79704        1.1004000E-17
   52.92389        1.1004029E-17
   53.05073        1.1004064E-17
   53.17757        1.1004104E-17
   53.30442        1.1004149E-17
   53.43126        1.1004196E-17
   53.55810        1.1004243E-17
   53.68495        1.1004287E-17
   53.81179        1.1004328E-17
   53.93863        1.1004363E-17
   54.06548        1.1004391E-17
   54.19232        1.1004415E-17
   54.31916        1.1004435E-17
   54.44601        1.1004454E-17
   54.57285        1.1004470E-17
   54.69970        1.1004487E-17
   54.82654        1.1004506E-17
   54.95338        1.1004525E-17
   55.08023        1.1004548E-17
   55.20707        1.1004569E-17
   55.33392        1.1004592E-17
   55.46076        1.1004613E-17
   55.58760        1.1004636E-17
   55.71444        1.1004658E-17
   55.84129        1.1004682E-17
   55.96813        1.1004708E-17
   56.09497        1.1004738E-17
   56.22182        1.1004770E-17
   56.34866        1.1004807E-17
   56.47551        1.1004843E-17
   56.60235        1.1004880E-17
   56.72919        1.1004913E-17
   56.85604        1.1004941E-17
   56.98288        1.1004963E-17
   57.10973        1.1004978E-17
   57.23657        1.1004989E-17
   57.36341        1.1004995E-17
   57.49026        1.1004999E-17
   57.61710        1.1005005E-17
   57.74394        1.1005015E-17
   57.87079        1.1005031E-17
   57.99763        1.1005053E-17
   58.12447        1.1005083E-17
   58.25132        1.1005119E-17
   58.37816        1.1005160E-17
   58.50500        1.1005204E-17
   58.63185        1.1005246E-17
   58.75869        1.1005287E-17
   58.88554        1.1005324E-17
   59.01238        1.1005357E-17
   59.13923        1.1005387E-17
   59.26607        1.1005416E-17
   59.39291        1.1005444E-17
   59.51975        1.1005471E-17
   59.64660        1.1005499E-17
   59.77344        1.1005529E-17
   59.90028        1.1005559E-17
   60.02713        1.1005590E-17
   60.15397        1.1005622E-17
   60.28082        1.1005653E-17
   60.40766        1.1005684E-17
   60.53450        1.1005715E-17
   60.66135        1.1005747E-17
   60.78819        1.1005782E-17
   60.91504        1.1005820E-17
   61.04188        1.1005863E-17
   61.16872        1.1005911E-17
   61.29557        1.1005964E-17
   61.42241        1.1006019E-17
   61.54925        1.1006076E-17
   61.67610        1.1006133E-17
   61.80294        1.1006186E-17
   61.92978        1.1006237E-17
   62.05663        1.1006282E-17
   62.18347        1.1006322E-17
   62.31031        1.1006359E-17
   62.43716        1.1006393E-17
   62.56400        1.1006426E-17
   62.69085        1.1006462E-17
   62.81769        1.1006500E-17
   62.94453        1.1006542E-17
   63.07138        1.1006588E-17
   63.19822        1.1006639E-17
   63.32506        1.1006694E-17
   63.45191        1.1006750E-17
   63.57875        1.1006806E-17
   63.70559        1.1006861E-17
   63.83244        1.1006916E-17
   63.95928        1.1006969E-17
   64.08613        1.1007020E-17
   64.21297        1.1007071E-17
   64.33981        1.1007120E-17
   64.46666        1.1007171E-17
   64.59350        1.1007221E-17
   64.72034        1.1007273E-17
   64.84719        1.1007325E-17
   64.97403        1.1007376E-17
   65.10088        1.1007426E-17
   65.22771        1.1007475E-17
   65.35456        1.1007524E-17
   65.48141        1.1007571E-17
   65.60825        1.1007617E-17
   65.73509        1.1007661E-17
   65.86194        1.1007707E-17
   65.98878        1.1007753E-17
   66.11562        1.1007800E-17
   66.24247        1.1007850E-17
   66.36931        1.1007901E-17
   66.49615        1.1007953E-17
   66.62300        1.1008004E-17
   66.74984        1.1008055E-17
   66.87669        1.1008103E-17
   67.00353        1.1008149E-17
   67.13037        1.1008192E-17
   67.25722        1.1008230E-17
   67.38406        1.1008268E-17
   67.51090        1.1008301E-17
   67.63775        1.1008334E-17
   67.76459        1.1008365E-17
   67.89143        1.1008398E-17
   68.01828        1.1008431E-17
   68.14512        1.1008467E-17
   68.27197        1.1008506E-17
   68.39881        1.1008546E-17
   68.52565        1.1008586E-17
   68.65250        1.1008627E-17
   68.77934        1.1008669E-17
   68.90618        1.1008707E-17
   69.03303        1.1008743E-17
   69.15987        1.1008778E-17
   69.28671        1.1008809E-17
   69.41356        1.1008839E-17
   69.54041        1.1008867E-17
   69.66724        1.1008895E-17
   69.79409        1.1008924E-17
   69.92093        1.1008953E-17
   70.04778        1.1008983E-17
   70.17462        1.1009012E-17
   70.30146        1.1009039E-17
   70.42831        1.1009065E-17
   70.55515        1.1009089E-17
   70.68199        1.1009111E-17
   70.80884        1.1009131E-17
   70.93568        1.1009149E-17
   71.06252        1.1009168E-17
   71.18937        1.1009185E-17
   71.31622        1.1009205E-17
   71.44305        1.1009226E-17
   71.56990        1.1009250E-17
   71.69675        1.1009278E-17
   71.82359        1.1009308E-17
   71.95043        1.1009341E-17
   72.07728        1.1009375E-17
   72.20412        1.1009412E-17
   72.33096        1.1009450E-17
   72.45780        1.1009489E-17
   72.58465        1.1009528E-17
   72.71149        1.1009569E-17
   72.83833        1.1009611E-17
   72.96518        1.1009654E-17
   73.09203        1.1009700E-17
   73.21886        1.1009747E-17
   73.34571        1.1009795E-17
   73.47256        1.1009845E-17
   73.59940        1.1009896E-17
   73.72624        1.1009945E-17
   73.85309        1.1009994E-17
   73.97993        1.1010041E-17
   74.10677        1.1010084E-17
   74.23362        1.1010127E-17
   74.36046        1.1010167E-17
   74.48730        1.1010206E-17
   74.61415        1.1010245E-17
   74.74099        1.1010284E-17
   74.86784        1.1010323E-17
   74.99467        1.1010363E-17
   75.12152        1.1010404E-17
   75.24837        1.1010445E-17
   75.37521        1.1010485E-17
   75.50205        1.1010523E-17
   75.62890        1.1010561E-17
   75.75574        1.1010597E-17
   75.88258        1.1010633E-17
   76.00943        1.1010668E-17
   76.13627        1.1010705E-17
   76.26311        1.1010743E-17
   76.38996        1.1010784E-17
   76.51680        1.1010827E-17
   76.64365        1.1010875E-17
   76.77049        1.1010927E-17
   76.89733        1.1010982E-17
   77.02418        1.1011042E-17
   77.15102        1.1011104E-17
   77.27786        1.1011169E-17
   77.40471        1.1011234E-17
   77.53155        1.1011300E-17
   77.65839        1.1011368E-17
   77.78524        1.1011437E-17
   77.91208        1.1011508E-17
   78.03893        1.1011581E-17
   78.16577        1.1011656E-17
   78.29261        1.1011732E-17
   78.41946        1.1011810E-17
   78.54630        1.1011888E-17
   78.67314        1.1011966E-17
   78.79999        1.1012040E-17
   78.92683        1.1012112E-17
   79.05367        1.1012179E-17
   79.18052        1.1012243E-17
   79.30737        1.1012303E-17
   79.43420        1.1012359E-17
   79.56105        1.1012413E-17
   79.68790        1.1012467E-17
   79.81474        1.1012521E-17
   79.94158        1.1012576E-17
   80.06842        1.1012632E-17
   80.19527        1.1012687E-17
   80.32211        1.1012744E-17
   80.44895        1.1012800E-17
   80.57580        1.1012855E-17
   80.70264        1.1012909E-17
   80.82948        1.1012963E-17
   80.95633        1.1013014E-17
   81.08318        1.1013066E-17
   81.21001        1.1013119E-17
   81.33686        1.1013173E-17
   81.46371        1.1013228E-17
   81.59055        1.1013285E-17
   81.71739        1.1013342E-17
   81.84424        1.1013399E-17
   81.97108        1.1013457E-17
   82.09792        1.1013514E-17
   82.22476        1.1013568E-17
   82.35161        1.1013620E-17
   82.47845        1.1013670E-17
   82.60529        1.1013719E-17
   82.73214        1.1013767E-17
   82.85899        1.1013816E-17
   82.98582        1.1013866E-17
   83.11267        1.1013916E-17
   83.23952        1.1013968E-17
   83.36636        1.1014018E-17
   83.49320        1.1014068E-17
   83.62005        1.1014117E-17
   83.74689        1.1014163E-17
   83.87373        1.1014208E-17
   84.00058        1.1014250E-17
   84.12742        1.1014290E-17
   84.25426        1.1014330E-17
   84.38111        1.1014367E-17
   84.50795        1.1014405E-17
   84.63480        1.1014443E-17
   84.76163        1.1014481E-17
   84.88848        1.1014519E-17
   85.01533        1.1014558E-17
   85.14217        1.1014596E-17
   85.26901        1.1014633E-17
   85.39586        1.1014668E-17
   85.52270        1.1014703E-17
   85.64954        1.1014736E-17
   85.77639        1.1014768E-17
   85.90323        1.1014800E-17
   86.03008        1.1014831E-17
   86.15692        1.1014861E-17
   86.28376        1.1014892E-17
   86.41061        1.1014921E-17
   86.53745        1.1014950E-17
   86.66429        1.1014977E-17
   86.79114        1.1015003E-17
   86.91798        1.1015026E-17
   87.04482        1.1015046E-17
   87.17167        1.1015065E-17
   87.29851        1.1015082E-17
   87.42535        1.1015098E-17
   87.55220        1.1015113E-17
   87.67904        1.1015127E-17
   87.80589        1.1015140E-17
   87.93273        1.1015153E-17
   88.05957        1.1015166E-17
   88.18642        1.1015177E-17
   88.31326        1.1015190E-17
   88.44010        1.1015200E-17
   88.56695        1.1015210E-17
   88.69379        1.1015221E-17
   88.82063        1.1015231E-17
   88.94748        1.1015242E-17
   89.07433        1.1015252E-17
   89.20116        1.1015266E-17
   89.32801        1.1015280E-17
   89.45486        1.1015297E-17
   89.58170        1.1015315E-17
   89.70854        1.1015335E-17
   89.83538        1.1015356E-17
   89.96223        1.1015377E-17
   90.08907        1.1015400E-17
   90.21591        1.1015424E-17
   90.34276        1.1015447E-17
   90.46960        1.1015471E-17
   90.59644        1.1015496E-17
   90.72329        1.1015521E-17
   90.85014        1.1015547E-17
   90.97697        1.1015574E-17
   91.10382        1.1015601E-17
   91.23067        1.1015627E-17
   91.35751        1.1015650E-17
   91.48435        1.1015672E-17
   91.61120        1.1015688E-17
   91.73804        1.1015701E-17
   91.86488        1.1015709E-17
   91.99173        1.1015714E-17
   92.11857        1.1015717E-17
   92.24541        1.1015721E-17
   92.37225        1.1015725E-17
   92.49910        1.1015732E-17
   92.62595        1.1015741E-17
   92.75278        1.1015754E-17
   92.87963        1.1015770E-17
   93.00648        1.1015791E-17
   93.13332        1.1015813E-17
   93.26016        1.1015837E-17
   93.38701        1.1015862E-17
   93.51385        1.1015888E-17
   93.64069        1.1015914E-17
   93.76754        1.1015941E-17
   93.89438        1.1015967E-17
   94.02122        1.1015994E-17
   94.14807        1.1016020E-17
   94.27491        1.1016046E-17
   94.40176        1.1016070E-17
   94.52859        1.1016090E-17
   94.65544        1.1016107E-17
   94.78229        1.1016118E-17
   94.90913        1.1016123E-17
   95.03597        1.1016122E-17
   95.16282        1.1016118E-17
   95.28966        1.1016109E-17
   95.41650        1.1016099E-17
   95.54335        1.1016089E-17
   95.67019        1.1016080E-17
   95.79704        1.1016073E-17
   95.92388        1.1016069E-17
   96.05072        1.1016066E-17
   96.17757        1.1016065E-17
   96.30441        1.1016065E-17
   96.43125        1.1016065E-17
   96.55810        1.1016065E-17
   96.68494        1.1016066E-17
   96.81178        1.1016069E-17
   96.93863        1.1016073E-17
   97.06547        1.1016081E-17
   97.19231        1.1016093E-17
   97.31916        1.1016109E-17
   97.44600        1.1016128E-17
   97.57285        1.1016152E-17
   97.69969        1.1016177E-17
   97.82653        1.1016204E-17
   97.95338        1.1016229E-17
   98.08022        1.1016252E-17
   98.20706        1.1016272E-17
   98.33391        1.1016288E-17
   98.46075        1.1016300E-17
   98.58759        1.1016307E-17
   98.71444        1.1016311E-17
   98.84129        1.1016314E-17
   98.96812        1.1016315E-17
   99.09497        1.1016315E-17
   99.22182        1.1016314E-17
   99.34866        1.1016312E-17
   99.47550        1.1016306E-17
   99.60234        1.1016299E-17
   99.72919        1.1016290E-17
   99.85603        1.1016279E-17
   99.98287        1.1016266E-17
   100.1097        1.1016254E-17
   100.2366        1.1016243E-17
   100.3634        1.1016232E-17
   100.4902        1.1016225E-17
   100.6171        1.1016221E-17
   100.7439        1.1016220E-17
   100.8708        1.1016222E-17
   100.9976        1.1016226E-17
   101.1245        1.1016231E-17
   101.2513        1.1016238E-17
   101.3782        1.1016243E-17
   101.5050        1.1016249E-17
   101.6318        1.1016254E-17
   101.7587        1.1016257E-17
   101.8855        1.1016260E-17
   102.0124        1.1016262E-17
   102.1392        1.1016264E-17
   102.2661        1.1016266E-17
   102.3929        1.1016270E-17
   102.5197        1.1016274E-17
   102.6466        1.1016277E-17
   102.7734        1.1016279E-17
   102.9003        1.1016279E-17
   103.0271        1.1016277E-17
   103.1540        1.1016272E-17
   103.2808        1.1016263E-17
   103.4077        1.1016252E-17
   103.5345        1.1016238E-17
   103.6613        1.1016222E-17
   103.7882        1.1016204E-17
   103.9150        1.1016185E-17
   104.0419        1.1016162E-17
   104.1687        1.1016138E-17
   104.2956        1.1016112E-17
   104.4224        1.1016080E-17
   104.5492        1.1016045E-17
   104.6761        1.1016003E-17
   104.8029        1.1015957E-17
   104.9298        1.1015904E-17
   105.0566        1.1015847E-17
   105.1835        1.1015789E-17
   105.3103        1.1015731E-17
   105.4371        1.1015675E-17
   105.5640        1.1015624E-17
   105.6908        1.1015581E-17
   105.8177        1.1015549E-17
   105.9445        1.1015527E-17
   106.0714        1.1015518E-17
   106.1982        1.1015524E-17
   106.3251        1.1015544E-17
   106.4519        1.1015577E-17
   106.5787        1.1015625E-17
   106.7056        1.1015688E-17
   106.8324        1.1015764E-17
   106.9593        1.1015854E-17
   107.0861        1.1015956E-17
   107.2130        1.1016070E-17
   107.3398        1.1016191E-17
   107.4667        1.1016319E-17
   107.5935        1.1016447E-17
   107.7203        1.1016572E-17
   107.8472        1.1016688E-17
   107.9740        1.1016791E-17