  -4.500000        2.9010686E-18
  -4.373208        2.9011021E-18
  -4.246415        2.9011664E-18
  -4.119622        2.9012549E-18
  -3.992829        2.9013596E-18
  -3.866037        2.9014700E-18
  -3.739244        2.9015769E-18
  -3.612452        2.9016716E-18
  -3.485659        2.9017490E-18
  -3.358866        2.9018058E-18
  -3.232074        2.9018422E-18
  -3.105281        2.9018619E-18
  -2.978488        2.9018704E-18
  -2.851696        2.9018757E-18
  -2.724903        2.9018869E-18
  -2.598110        2.9019119E-18
  -2.471318        2.9019580E-18
  -2.344525        2.9020279E-18
  -2.217732        2.9021233E-18
  -2.090940        2.9022407E-18
  -1.964147        2.9023747E-18
  -1.837354        2.9025172E-18
  -1.710562        2.9026587E-18
  -1.583769        2.9027894E-18
  -1.456976        2.9029014E-18
  -1.330184        2.9029893E-18
  -1.203391        2.9030507E-18
  -1.076598        2.9030869E-18
 -0.9498057        2.9031022E-18
 -0.8230131        2.9031012E-18
 -0.6962205        2.9030904E-18
 -0.5694278        2.9030729E-18
 -0.4426351        2.9030510E-18
 -0.3158425        2.9030251E-18
 -0.1890498        2.9030021E-18
 -6.2257171E-02    2.9029982E-18
  6.4535484E-02    2.9030454E-18
  0.1913281        2.9031957E-18
  0.3181208        2.9035100E-18
  0.4449134        2.9040396E-18
  0.5717061        2.9047829E-18
  0.6984987        2.9056384E-18
  0.8252914        2.9063578E-18
  0.9520841        2.9065261E-18
   1.078877        2.9056049E-18
   1.205669        2.9030532E-18
   1.332462        2.8985488E-18
   1.459255        2.8922749E-18
   1.586047        2.8852138E-18
   1.712840        2.8793330E-18
   1.839633        2.8775297E-18
   1.966425        2.8832098E-18
   2.093218        2.8994447E-18
   2.220011        2.9277642E-18
   2.346803        2.9668020E-18
   2.473596        3.0111794E-18
   2.600389        3.0511138E-18
   2.727181        3.0732188E-18
   2.853974        3.0628074E-18
   2.980767        3.0076601E-18
   3.107559        2.9027412E-18
   3.234352        2.7548694E-18
   3.361145        2.5859626E-18
   3.487937        2.4333883E-18
   3.614730        2.3462658E-18
   3.741522        2.3773175E-18
   3.868315        2.5709605E-18
   3.995108        2.9495612E-18
   4.121901        3.5007967E-18
   4.248693        4.1695693E-18
   4.375485        4.8575925E-18
   4.502278        5.4326071E-18
   4.629071        5.7472426E-18
   4.755864        5.6653162E-18
   4.882656        5.0913227E-18
   5.009449        3.9975881E-18
   5.136241        2.4434330E-18
   5.263034        5.8174098E-19
   5.389827       -1.3496532E-18
   5.516620       -3.0519112E-18
   5.643412       -4.2023629E-18
   5.770205       -4.5011447E-18
   5.896997       -3.7226192E-18
   6.023790       -1.7664438E-18
   6.150583        1.2973025E-18
   6.277375        5.1953266E-18
   6.404168        9.4382640E-18
   6.530961        1.3336272E-17
   6.657753        1.6051039E-17
   6.784546        1.6688902E-17
   6.911339        1.4432770E-17
   7.038131        8.7003452E-18
   7.164924       -6.9534364E-19
   7.291717       -1.3416532E-17
   7.418509       -2.8538823E-17
   7.545302       -4.4586438E-17
   7.672095       -5.9676356E-17
   7.798887       -7.1756442E-17
   7.925680       -7.8893258E-17
   8.052472       -7.9542025E-17
   8.179265       -7.2723304E-17
   8.306058       -5.8045897E-17
   8.432851       -3.5553612E-17
   8.559643       -5.4300416E-18
   8.686436        3.2343764E-17
   8.813229        7.8236939E-17
   8.940022        1.3316524E-16
   9.066813        1.9811182E-16
   9.193606        2.7332951E-16
   9.320399        3.5720483E-16
   9.447192        4.4500305E-16
   9.573984        5.2783896E-16
   9.700777        5.9228837E-16
   9.827570        6.2104048E-16
   9.954362        5.9487415E-16
   10.08115        4.9601392E-16
   10.20795        3.1262117E-16
   10.33474        4.3838015E-17
   10.46153       -2.9550468E-16
   10.58833       -6.7160581E-16
   10.71512       -1.0309676E-15
   10.84191       -1.3031777E-15
   10.96870       -1.4077500E-15
   11.09550       -1.2649830E-15
   11.22229       -8.1005917E-16
   11.34908       -8.8671760E-18
   11.47587        1.1266143E-15
   11.60267        2.5259372E-15
   11.72946        4.0534237E-15
   11.85625        5.5092806E-15
   11.98304        6.6400611E-15
   12.10984        7.1588438E-15
   12.23663        6.7741481E-15
   12.36342        5.2253204E-15
   12.49022        2.3209510E-15
   12.61701       -2.0238262E-15
   12.74380       -7.7555336E-15
   12.87059       -1.4660062E-14
   12.99739       -2.2353040E-14
   13.12418       -3.0284779E-14
   13.25097       -3.7760207E-14
   13.37776       -4.3973024E-14
   13.50456       -4.8052047E-14
   13.63135       -4.9117255E-14
   13.75814       -4.6342718E-14
   13.88493       -3.9023770E-14
   14.01173       -2.6646188E-14
   14.13852       -8.9552270E-15
   14.26531        1.3977712E-14
   14.39211        4.1693659E-14
   14.51890        7.3294127E-14
   14.64569        1.0740458E-13
   14.77248        1.4216119E-13
   14.89928        1.7523015E-13
   15.02607        2.0386974E-13
   15.15286        2.2504398E-13
   15.27965        2.3559391E-13
   15.40645        2.3246769E-13
   15.53324        2.1300312E-13
   15.66003        1.7524740E-13
   15.78682        1.1829064E-13
   15.91362        4.2579811E-14
   16.04041       -4.9824677E-14
   16.16720       -1.5509152E-13
   16.29399       -2.6759888E-13
   16.42079       -3.8008480E-13
   16.54758       -4.8398617E-13
   16.67437       -5.6996947E-13
   16.80116       -6.2863560E-13
   16.92796       -6.5136161E-13
   17.05475       -6.3122218E-13
   17.18154       -5.6391843E-13
   17.30834       -4.4862941E-13
   17.43513       -2.8869751E-13
   17.56192       -9.2059857E-14
   17.68871        1.2865512E-13
   17.81551        3.5643155E-13
   17.94230        5.7061680E-13
   18.06909        7.4813918E-13
   18.19588        8.6518097E-13
   18.32268        8.9925766E-13
   18.44947        8.3161055E-13
   18.57626        6.4977423E-13
   18.70305        3.5013087E-13
   18.82985       -5.9778036E-14
   18.95664       -5.5944973E-13
   19.08343       -1.1144096E-12
   19.21023       -1.6762663E-12
   19.33702       -2.1840702E-12
   19.46381       -2.5671390E-12
   19.59060       -2.7494090E-12
   19.71740       -2.6552358E-12
   19.84419       -2.2164152E-12
   19.97098       -1.3800354E-12
   20.09777       -1.1662553E-13
   20.22457        1.5720542E-12
   20.35136        3.6463155E-12
   20.47815        6.0236911E-12
   20.60494        8.5766567E-12
   20.73174        1.1133548E-11
   20.85853        1.3483145E-11
   20.98532        1.5383190E-11
   21.11212        1.6572858E-11
   21.23891        1.6788935E-11
   21.36570        1.5785158E-11
   21.49249        1.3353881E-11
   21.61929        9.3489253E-12
   21.74608        3.7082420E-12
   21.87287       -3.5252632E-12
   21.99966       -1.2186482E-11
   22.12646       -2.1976310E-11
   22.25325       -3.2457127E-11
   22.38004       -4.3057117E-11
   22.50683       -5.3084797E-11
   22.63363       -6.1754490E-11
   22.76042       -6.8222893E-11
   22.88721       -7.1636044E-11
   23.01401       -7.1185245E-11
   23.14080       -6.6169410E-11
   23.26759       -5.6060552E-11
   23.39438       -4.0568306E-11
   23.52118       -1.9698895E-11
   23.64797        6.1964114E-12
   23.77476        3.6388215E-11
   23.90155        6.9755847E-11
   24.02835        1.0479782E-10
   24.15514        1.3966857E-10
   24.28193        1.7224244E-10
   24.40872        2.0020488E-10
   24.53552        2.2116778E-10
   24.66231        2.3280547E-10
   24.78910        2.3300487E-10
   24.91590        2.2002221E-10
   25.04269        1.9263775E-10
   25.16948        1.5029837E-10
   25.29627        9.3237959E-11
   25.42307        2.2566161E-11
   25.54986       -5.9683966E-11
   25.67665       -1.5055630E-10
   25.80344       -2.4622596E-10
   25.93024       -3.4210954E-10
   26.05703       -4.3303189E-10
   26.18382       -5.1344479E-10
   26.31061       -5.7769178E-10
   26.43741       -6.2030808E-10
   26.56420       -6.3634265E-10
   26.69099       -6.2168692E-10
   26.81779       -5.7339267E-10
   26.94458       -4.8995930E-10
   27.07137       -3.7157347E-10
   27.19816       -2.2028097E-10
   27.32495       -4.0076751E-11
   27.45175        1.6310316E-10
   27.57854        3.8149423E-10
   27.70533        6.0572791E-10
   27.83213        8.2516510E-10
   27.95892        1.0283332E-09
   28.08571        1.2034523E-09
   28.21250        1.3390319E-09
   28.33930        1.4245096E-09
   28.46609        1.4509047E-09
   28.59288        1.4114458E-09
   28.71968        1.3021407E-09
   28.84647        1.1222440E-09
   28.97326        8.7459062E-10
   29.10005        5.6575988E-10
   29.22684        2.0604386E-10
   29.35364       -1.9079494E-10
   29.48043       -6.0798355E-10
   29.60722       -1.0264121E-09
   29.73402       -1.4254975E-09
   29.86081       -1.7842042E-09
   29.98760       -2.0821789E-09
   30.11439       -2.3009386E-09
   30.24119       -2.4250462E-09
   30.36798       -2.4432036E-09
   30.49477       -2.3491895E-09
   30.62156       -2.1425679E-09
   30.74836       -1.8291152E-09
   30.87515       -1.4209071E-09
   31.00194       -9.3603669E-10
   31.12873       -3.9795103E-10
   31.25553        1.6557987E-10
   31.38232        7.2383638E-10
   31.50911        1.2447985E-09
   31.63591        1.6969987E-09
   31.76270        2.0514712E-09
   31.88949        2.2836986E-09
   32.01628        2.3754270E-09
   32.14308        2.3162294E-09
   32.26987        2.1047137E-09
   32.39666        1.7492643E-09
   32.52345        1.2682472E-09
   32.65025        6.8962602E-10
   32.77704        4.9968106E-11
   32.90383       -6.0713251E-10
   33.03062       -1.2331787E-09
   33.15742       -1.7773334E-09
   33.28421       -2.1893158E-09
   33.41100       -2.4224749E-09
   33.53780       -2.4368856E-09
   33.66459       -2.2022855E-09
   33.79138       -1.7006820E-09
   33.91817       -9.2845637E-10
   34.04497        1.0216419E-10
   34.17176        1.3624014E-09
   34.29855        2.8070541E-09
   34.42534        4.3755115E-09
   34.55214        5.9936216E-09
   34.67893        7.5763920E-09
   34.80572        9.0313979E-09
   34.93251        1.0262778E-08
   35.05931        1.1175628E-08
   35.18610        1.1680608E-08
   35.31289        1.1698525E-08
   35.43969        1.1164707E-08
   35.56648        1.0032912E-08
   35.69327        8.2785991E-09
   35.82006        5.9013869E-09
   35.94686        2.9265672E-09
   36.07365       -5.9442529E-10
   36.20044       -4.5846278E-09
   36.32723       -8.9432408E-09
   36.45403       -1.3548348E-08
   36.58082       -1.8260542E-08
   36.70761       -2.2927356E-08
   36.83440       -2.7388293E-08
   36.96120       -3.1480248E-08
   37.08799       -3.5043154E-08
   37.21478       -3.7925592E-08
   37.34158       -3.9990152E-08
   37.46837       -4.1118419E-08
   37.59516       -4.1215259E-08
   37.72195       -4.0212448E-08
   37.84875       -3.8071359E-08
   37.97554       -3.4784780E-08
   38.10233       -3.0377688E-08
   38.22912       -2.4907099E-08
   38.35592       -1.8460936E-08
   38.48271       -1.1156049E-08
   38.60950       -3.1354181E-09
   38.73629        5.4352909E-09
   38.86309        1.4371763E-08
   38.98988        2.3475446E-08
   39.11667        3.2538303E-08
   39.24347        4.1347665E-08
   39.37026        4.9691199E-08
   39.49705        5.7361692E-08
   39.62384        6.4161725E-08
   39.75064        6.9908118E-08
   39.87743        7.4435945E-08
   40.00422        7.7602280E-08
   40.13101        7.9289457E-08
   40.25780        7.9407911E-08
   40.38460        7.7898584E-08
   40.51139        7.4734764E-08
   40.63818        6.9923551E-08
   40.76498        6.3506711E-08
   40.89177        5.5560974E-08
   41.01856        4.6197812E-08
   41.14536        3.5562483E-08
   41.27215        2.3832380E-08
   41.39894        1.1214562E-08
   41.52573       -2.0576205E-09
   41.65253       -1.5728903E-08
   41.77932       -2.9527573E-08
   41.90611       -4.3172101E-08
   42.03290       -5.6379029E-08
   42.15969       -6.8872097E-08
   42.28649       -8.0392603E-08
   42.41328       -9.0711055E-08
   42.54007       -9.9639841E-08
   42.66687       -1.0704694E-07
   42.79366       -1.1287036E-07
   42.92045       -1.1713300E-07
   43.04725       -1.1995789E-07
   43.17404       -1.2158310E-07
   43.30083       -1.2237619E-07
   43.42762       -1.2284771E-07
   43.55442       -1.2366324E-07
   43.68121       -1.2565363E-07
   43.80800       -1.2982289E-07
   43.93479       -1.3735345E-07
   44.06158       -1.4960810E-07
   44.18838       -1.6812858E-07
   44.31517       -1.9463012E-07
   44.44196       -2.3099176E-07
   44.56876       -2.7924247E-07
   44.69555       -3.4154229E-07
   44.82234       -4.2015890E-07
   44.94913       -5.1743910E-07
   45.07593       -6.3577602E-07
   45.20272       -7.7757096E-07
   45.32951       -9.4519197E-07
   45.45631       -1.1409265E-06
   45.58310       -1.3669336E-06
   45.70989       -1.6251897E-06
   45.83668       -1.9174342E-06
   45.96347       -2.2451159E-06
   46.09027       -2.6093339E-06
   46.21706       -3.0107872E-06
   46.34385       -3.4497193E-06
   46.47065       -3.9258730E-06
   46.59744       -4.4384474E-06
   46.72423       -4.9860637E-06
   46.85102       -5.5667392E-06
   46.97782       -6.1778742E-06
   47.10461       -6.8162453E-06
   47.23140       -7.4780219E-06
   47.35820       -8.1587868E-06
   47.48499       -8.8535789E-06
   47.61178       -9.5569512E-06
   47.73857       -1.0263037E-05
   47.86536       -1.0965650E-05
   47.99216       -1.1658371E-05
   48.11895       -1.2334677E-05
   48.24574       -1.2988056E-05
   48.37254       -1.3612154E-05
   48.49933       -1.4200903E-05
   48.62612       -1.4748668E-05
   48.75291       -1.5250391E-05
   48.87971       -1.5701718E-05
   49.00650       -1.6099133E-05
   49.13329       -1.6440066E-05
   49.26009       -1.6722983E-05
   49.38688       -1.6947466E-05
   49.51367       -1.7114258E-05
   49.64046       -1.7225286E-05
   49.76725       -1.7283652E-05
   49.89405       -1.7293609E-05
   50.02084       -1.7260480E-05
   50.14763       -1.7190572E-05
   50.27443       -1.7091055E-05
   50.40122       -1.6969809E-05
   50.52801       -1.6835260E-05
   50.65480       -1.6696187E-05
   50.78160       -1.6561535E-05
   50.90839       -1.6440190E-05
   51.03518       -1.6340782E-05
   51.16198       -1.6271479E-05
   51.28877       -1.6239783E-05
   51.41556       -1.6252354E-05
   51.54235       -1.6314845E-05
   51.66914       -1.6431768E-05
   51.79594       -1.6606380E-05
   51.92273       -1.6840608E-05
   52.04952       -1.7134998E-05
   52.17632       -1.7488712E-05
   52.30311       -1.7899538E-05
   52.42990       -1.8363960E-05
   52.55669       -1.8877226E-05
   52.68349       -1.9433475E-05
   52.81028       -2.0025867E-05
   52.93707       -2.0646741E-05
   53.06387       -2.1287789E-05
   53.19066       -2.1940243E-05
   53.31745       -2.2595057E-05
   53.44424       -2.3243098E-05
   53.57103       -2.3875336E-05
   53.69783       -2.4483017E-05
   53.82462       -2.5057832E-05
   53.95141       -2.5592068E-05
   54.07821       -2.6078736E-05
   54.20500       -2.6511696E-05
   54.33179       -2.6885744E-05
   54.45858       -2.7196687E-05
   54.58538       -2.7441405E-05
   54.71217       -2.7617873E-05
   54.83896       -2.7725184E-05
   54.96576       -2.7763548E-05
   55.09255       -2.7734271E-05
   55.21934       -2.7639722E-05
   55.34613       -2.7483289E-05
   55.47292       -2.7269320E-05
   55.59972       -2.7003049E-05
   55.72651       -2.6690532E-05
   55.85330       -2.6338541E-05
   55.98009       -2.5954478E-05
   56.10689       -2.5546273E-05
   56.23368       -2.5122265E-05
   56.36047       -2.4691086E-05
   56.48727       -2.4261539E-05
   56.61406       -2.3842456E-05
   56.74085       -2.3442582E-05
   56.86765       -2.3070417E-05
   56.99444       -2.2734079E-05
   57.12123       -2.2441180E-05
   57.24802       -2.2198670E-05
   57.37481       -2.2012728E-05
   57.50161       -2.1888631E-05
   57.62840       -2.1830650E-05
   57.75519       -2.1841979E-05
   57.88198       -2.1924645E-05
   58.00878       -2.2079474E-05
   58.13557       -2.2306078E-05
   58.26236       -2.2602846E-05
   58.38916       -2.2966999E-05
   58.51595       -2.3394639E-05
   58.64274       -2.3880844E-05
   58.76954       -2.4419787E-05
   58.89633       -2.5004865E-05
   59.02312       -2.5628860E-05
   59.14991       -2.6284108E-05
   59.27670       -2.6962673E-05
   59.40350       -2.7656522E-05
   59.53029       -2.8357697E-05
   59.65708       -2.9058485E-05
   59.78387       -2.9751549E-05
   59.91067       -3.0430057E-05
   60.03746       -3.1087777E-05
   60.16425       -3.1719137E-05
   60.29105       -3.2319265E-05
   60.41784       -3.2883963E-05
   60.54463       -3.3409702E-05
   60.67142       -3.3893539E-05
   60.79822       -3.4333025E-05
   60.92501       -3.4726090E-05
   61.05180       -3.5070931E-05
   61.17859       -3.5365854E-05
   61.30539       -3.5609155E-05
   61.43218       -3.5798988E-05
   61.55897       -3.5933266E-05
   61.68576       -3.6009573E-05
   61.81256       -3.6025107E-05
   61.93935       -3.5976689E-05
   62.06614       -3.5860776E-05
   62.19294       -3.5673547E-05
   62.31973       -3.5411020E-05
   62.44652       -3.5069210E-05
   62.57331       -3.4644330E-05
   62.70011       -3.4133031E-05
   62.82690       -3.3532648E-05
   62.95369       -3.2841464E-05
   63.08048       -3.2059004E-05
   63.20728       -3.1186268E-05
   63.33407       -3.0226001E-05
   63.46086       -2.9182876E-05
   63.58765       -2.8063676E-05
   63.71445       -2.6877397E-05
   63.84124       -2.5635285E-05
   63.96803       -2.4350826E-05
   64.09483       -2.3039640E-05
   64.22162       -2.1719308E-05
   64.34841       -2.0409132E-05
   64.47520       -1.9129811E-05
   64.60200       -1.7903078E-05
   64.72879       -1.6751253E-05
   64.85558       -1.5696789E-05
   64.98238       -1.4761760E-05
   65.10917       -1.3967364E-05
   65.23596       -1.3333405E-05
   65.36275       -1.2877815E-05
   65.48955       -1.2616201E-05
   65.61633       -1.2561446E-05
   65.74313       -1.2723374E-05
   65.86992       -1.3108487E-05
   65.99671       -1.3719793E-05
   66.12350       -1.4556718E-05
   66.25030       -1.5615111E-05
   66.37709       -1.6887347E-05
   66.50388       -1.8362509E-05
   66.63068       -2.0026670E-05
   66.75747       -2.1863225E-05
   66.88426       -2.3853303E-05
   67.01105       -2.5976211E-05
   67.13785       -2.8209924E-05
   67.26464       -3.0531577E-05
   67.39143       -3.2917971E-05
   67.51823       -3.5346027E-05
   67.64502       -3.7793256E-05
   67.77181       -4.0238123E-05
   67.89861       -4.2660409E-05
   68.02540       -4.5041455E-05
   68.15219       -4.7364359E-05
   68.27898       -4.9614082E-05
   68.40578       -5.1777461E-05
   68.53257       -5.3843178E-05
   68.65936       -5.5801662E-05
   68.78616       -5.7644858E-05
   68.91295       -5.9366033E-05
   69.03974       -6.0959515E-05
   69.16653       -6.2420397E-05
   69.29333       -6.3744235E-05
   69.42011       -6.4926797E-05
   69.54691       -6.5963795E-05
   69.67370       -6.6850662E-05
   69.80049       -6.7582398E-05
   69.92728       -6.8153502E-05
   70.05408       -6.8557900E-05
   70.18087       -6.8789006E-05
   70.30766       -6.8839843E-05
   70.43446       -6.8703259E-05
   70.56125       -6.8372137E-05
   70.68804       -6.7839763E-05
   70.81483       -6.7100140E-05
   70.94163       -6.6148437E-05
   71.06842       -6.4981352E-05
   71.19521       -6.3597567E-05
   71.32201       -6.1998107E-05
   71.44880       -6.0186747E-05
   71.57559       -5.8170306E-05
   71.70238       -5.5958913E-05
   71.82918       -5.3566186E-05
   71.95597       -5.1009345E-05
   72.08276       -4.8309219E-05
   72.20956       -4.5490156E-05
   72.33635       -4.2579868E-05
   72.46314       -3.9609142E-05
   72.58994       -3.6611509E-05
   72.71673       -3.3622815E-05
   72.84352       -3.0680705E-05
   72.97031       -2.7824120E-05
   73.09711       -2.5092668E-05
   73.22389       -2.2526034E-05
   73.35069       -2.0163357E-05
   73.47748       -1.8042609E-05
   73.60427       -1.6199987E-05
   73.73106       -1.4669343E-05
   73.85786       -1.3481646E-05
   73.98465       -1.2664496E-05
   74.11144       -1.2241681E-05
   74.23824       -1.2232807E-05
   74.36503       -1.2652978E-05
   74.49182       -1.3512545E-05
   74.61861       -1.4816924E-05
   74.74541       -1.6566464E-05
   74.87220       -1.8756384E-05
   74.99899       -2.1376774E-05
   75.12579       -2.4412646E-05
   75.25258       -2.7844040E-05
   75.37937       -3.1646181E-05
   75.50616       -3.5789701E-05
   75.63296       -4.0240888E-05
   75.75975       -4.4962006E-05
   75.88654       -4.9911632E-05
   76.01334       -5.5045064E-05
   76.14013       -6.0314760E-05
   76.26692       -6.5670807E-05
   76.39371       -7.1061419E-05
   76.52051       -7.6433505E-05
   76.64730       -8.1733167E-05
   76.77409       -8.6906322E-05
   76.90089       -9.1899252E-05
   77.02767       -9.6659161E-05
   77.15446       -1.0113476E-04
   77.28126       -1.0527676E-04
   77.40805       -1.0903843E-04
   77.53484       -1.1237597E-04
   77.66164       -1.1524899E-04
   77.78843       -1.1762079E-04
   77.91522       -1.1945869E-04
   78.04202       -1.2073421E-04
   78.16881       -1.2142328E-04
   78.29560       -1.2150623E-04
   78.42239       -1.2096792E-04
   78.54919       -1.1979770E-04
   78.67598       -1.1798930E-04
   78.80277       -1.1554077E-04
   78.92957       -1.1245438E-04
   79.05636       -1.0873647E-04
   79.18315       -1.0439732E-04
   79.30994       -9.9451056E-05
   79.43674       -9.3915507E-05
   79.56353       -8.7812157E-05
   79.69032       -8.1166036E-05
   79.81712       -7.4005744E-05
   79.94391       -6.6363362E-05
   80.07070       -5.8274454E-05
   80.19749       -4.9778057E-05
   80.32429       -4.0916646E-05
   80.45108       -3.1736072E-05
   80.57787       -2.2285469E-05
   80.70466       -1.2617099E-05
   80.83145       -2.7861354E-06
   80.95824        7.1496502E-06
   81.08504        1.7130273E-05
   81.21183        2.7094029E-05
   81.33862        3.6978097E-05
   81.46542        4.6719219E-05
   81.59221        5.6254470E-05
   81.71900        6.5522130E-05
   81.84579        7.4462601E-05
   81.97259        8.3019389E-05
   82.09938        9.1140013E-05
   82.22617        9.8777076E-05
   82.35297        1.0588907E-04
   82.47976        1.1244131E-04
   82.60655        1.1840662E-04
   82.73335        1.2376596E-04
   82.86014        1.2850888E-04
   82.98693        1.3263375E-04
   83.11372        1.3614784E-04
   83.24052        1.3906715E-04
   83.36731        1.4141605E-04
   83.49410        1.4322663E-04
   83.62090        1.4453797E-04
   83.74769        1.4539511E-04
   83.87448        1.4584788E-04
   84.00127        1.4594960E-04
   84.12807        1.4575574E-04
   84.25486        1.4532242E-04
   84.38165        1.4470496E-04
   84.50844        1.4395645E-04
   84.63523        1.4312640E-04
   84.76202        1.4225945E-04
   84.88882        1.4139435E-04
   85.01561        1.4056303E-04
   85.14240        1.3978990E-04
   85.26920        1.3909144E-04
   85.39599        1.3847598E-04
   85.52278        1.3794377E-04
   85.64957        1.3748727E-04
   85.77637        1.3709169E-04
   85.90316        1.3673579E-04
   86.02995        1.3639279E-04
   86.15675        1.3603145E-04
   86.28354        1.3561739E-04
   86.41033        1.3511421E-04
   86.53712        1.3448500E-04
   86.66392        1.3369357E-04
   86.79071        1.3270571E-04
   86.91750        1.3149045E-04
   87.04430        1.3002110E-04
   87.17109        1.2827615E-04
   87.29788        1.2624008E-04
   87.42467        1.2390393E-04
   87.55147        1.2126566E-04
   87.67826        1.1833039E-04
   87.80505        1.1511033E-04
   87.93185        1.1162461E-04
   88.05864        1.0789898E-04
   88.18543        1.0396517E-04
   88.31222        9.9860285E-05
   88.43901        9.5626026E-05
   88.56580        9.1307782E-05
   88.69260        8.6953703E-05
   88.81939        8.2613697E-05
   88.94618        7.8338380E-05
   89.07298        7.4178148E-05
   89.19977        7.0182097E-05
   89.32656        6.6397144E-05
   89.45335        6.2867111E-05
   89.58015        5.9631962E-05
   89.70694        5.6727073E-05
   89.83373        5.4182663E-05
   89.96053        5.2023312E-05
   90.08732        5.0267601E-05
   90.21411        4.8927905E-05
   90.34090        4.8010308E-05
   90.46770        4.7514641E-05
   90.59449        4.7434649E-05
   90.72128        4.7758309E-05
   90.84808        4.8468220E-05
   90.97487        4.9542130E-05
   91.10166        5.0953509E-05
   91.22845        5.2672240E-05
   91.35525        5.4665332E-05
   91.48204        5.6897661E-05
   91.60883        5.9332742E-05
   91.73563        6.1933453E-05
   91.86242        6.4662774E-05
   91.98921        6.7484456E-05
   92.11600        7.0363611E-05
   92.24279        7.3267220E-05
   92.36958        7.6164572E-05
   92.49638        7.9027574E-05
   92.62317        8.1830985E-05
   92.74996        8.4552521E-05
   92.87675        8.7172833E-05
   93.00355        8.9675472E-05
   93.13034        9.2046663E-05
   93.25713        9.4275121E-05
   93.38393        9.6351709E-05
   93.51072        9.8269120E-05
   93.63751        1.0002153E-04
   93.76431        1.0160424E-04
   93.89110        1.0301336E-04
   94.01789        1.0424546E-04
   94.14468        1.0529737E-04
   94.27148        1.0616593E-04
   94.39827        1.0684793E-04
   94.52506        1.0733995E-04
   94.65186        1.0763849E-04
   94.77865        1.0773994E-04
   94.90544        1.0764075E-04
   95.03223        1.0733765E-04
   95.15903        1.0682785E-04
   95.28582        1.0610928E-04
   95.41261        1.0518087E-04
   95.53941        1.0404278E-04
   95.66620        1.0269664E-04
   95.79299        1.0114574E-04
   95.91978        9.9395154E-05
   96.04657        9.7451826E-05
   96.17336        9.5324598E-05
   96.30016        9.3024071E-05
   96.42695        9.0562557E-05
   96.55374        8.7953791E-05
   96.68053        8.5212661E-05
   96.80733        8.2354920E-05
   96.93412        7.9396756E-05
   97.06091        7.6354445E-05
   97.18771        7.3243915E-05
   97.31450        7.0080387E-05
   97.44129        6.6878012E-05
   97.56808        6.3649561E-05
   97.69488        6.0406208E-05
   97.82167        5.7157366E-05
   97.94846        5.3910622E-05
   98.07526        5.0671766E-05
   98.20205        4.7444923E-05
   98.32884        4.4232747E-05
   98.45564        4.1036747E-05
   98.58243        3.7857622E-05
   98.70922        3.4695699E-05
   98.83601        3.1551361E-05
   98.96281        2.8425515E-05
   99.08960        2.5320021E-05
   99.21639        2.2238091E-05
   99.34319        1.9184630E-05
   99.46998        1.6166478E-05
   99.59677        1.3192569E-05
   99.72356        1.0273967E-05
   99.85035        7.4237846E-06
   99.97714        4.6569858E-06
   100.1039        1.9900592E-06
   100.2307       -5.5941643E-07
   100.3575       -2.9732869E-06
   100.4843       -5.2334362E-06
   100.6111       -7.3224360E-06
   100.7379       -9.2242208E-06
   100.8647       -1.0924770E-05
   100.9915       -1.2412746E-05
   101.1183       -1.3680090E-05
   101.2451       -1.4722496E-05
   101.3719       -1.5539823E-05
   101.4987       -1.6136331E-05
   101.6255       -1.6520795E-05
   101.7522       -1.6706461E-05
   101.8790       -1.6710863E-05
   102.0058       -1.6555459E-05
   102.1326       -1.6265141E-05
   102.2594       -1.5867612E-05
   102.3862       -1.5392672E-05
   102.5130       -1.4871384E-05
   102.6398       -1.4335228E-05
   102.7666       -1.3815194E-05
   102.8934       -1.3340907E-05
   103.0202       -1.2939759E-05
   103.1470       -1.2636126E-05
   103.2738       -1.2450664E-05
   103.4006       -1.2399712E-05
   103.5273       -1.2494837E-05
   103.6541       -1.2742500E-05
   103.7809       -1.3143880E-05
   103.9077       -1.3694846E-05
   104.0345       -1.4386070E-05
   104.1613       -1.5203282E-05
   104.2881       -1.6127646E-05
   104.4149       -1.7136252E-05
   104.5417       -1.8202694E-05
   104.6685       -1.9297731E-05
   104.7953       -2.0390002E-05
   104.9221       -2.1446780E-05
   105.0489       -2.2434750E-05
   105.1756       -2.3320776E-05
   105.3024       -2.4072693E-05
   105.4292       -2.4660047E-05
   105.5560       -2.5054820E-05
   105.6828       -2.5232121E-05
   105.8096       -2.5170828E-05
   105.9364       -2.4854186E-05
   106.0632       -2.4270339E-05
   106.1900       -2.3412829E-05
   106.3168       -2.2281001E-05
   106.4436       -2.0880352E-05
   106.5704       -1.9222794E-05
   106.6972       -1.7326824E-05
   106.8240       -1.5217584E-05
   106.9507       -1.2926827E-05
   107.0775       -1.0492723E-05
   107.2043       -7.9595493E-06
   107.3311       -5.3772151E-06
   107.4579       -2.8006339E-06
   107.5847       -2.8892418E-07
   107.7115        2.0955540E-06
   107.8383        4.2883266E-06
   107.9651        6.2240792E-06
   108.0919        7.8380763E-06
   108.2187        9.0676758E-06
   108.3455        9.8539376E-06
   108.4723        1.0143255E-05
   108.5990        9.8889932E-06
   108.7258        9.0530584E-06
   108.8526        7.6073752E-06
   108.9794        5.5351888E-06
   109.1062        2.8321651E-06
   109.2330       -4.9278066E-07
   109.3598       -4.4169578E-06
   109.4866       -8.9037158E-06
   109.6134       -1.3902631E-05
   109.7402       -1.9350076E-05
   109.8670       -2.5170182E-05
   109.9938       -3.1276169E-05
   110.1206       -3.7572037E-05
   110.2474       -4.3954555E-05
   110.3741       -5.0315535E-05
   110.5009       -5.6544290E-05
   110.6277       -6.2530205E-05