  -4.500000        5.0095452E-18
  -4.373208        5.0093152E-18
  -4.246415        5.0089595E-18
  -4.119622        5.0085534E-18
  -3.992829        5.0081456E-18
  -3.866037        5.0077642E-18
  -3.739244        5.0074243E-18
  -3.612452        5.0071306E-18
  -3.485659        5.0068862E-18
  -3.358866        5.0066902E-18
  -3.232074        5.0065404E-18
  -3.105281        5.0064341E-18
  -2.978488        5.0063647E-18
  -2.851696        5.0063233E-18
  -2.724903        5.0063006E-18
  -2.598110        5.0062869E-18
  -2.471318        5.0062716E-18
  -2.344525        5.0062476E-18
  -2.217732        5.0062096E-18
  -2.090940        5.0061562E-18
  -1.964147        5.0060855E-18
  -1.837354        5.0059982E-18
  -1.710562        5.0058932E-18
  -1.583769        5.0057716E-18
  -1.456976        5.0056326E-18
  -1.330184        5.0054783E-18
  -1.203391        5.0053088E-18
  -1.076598        5.0051276E-18
 -0.9498057        5.0049361E-18
 -0.8230131        5.0047376E-18
 -0.6962205        5.0045337E-18
 -0.5694278        5.0043261E-18
 -0.4426351        5.0041151E-18
 -0.3158425        5.0039013E-18
 -0.1890498        5.0036838E-18
 -6.2257171E-02    5.0034637E-18
  6.4535484E-02    5.0032416E-18
  0.1913281        5.0030187E-18
  0.3181208        5.0027979E-18
  0.4449134        5.0025820E-18
  0.5717061        5.0023735E-18
  0.6984987        5.0021725E-18
  0.8252914        5.0019806E-18
  0.9520841        5.0017970E-18
   1.078877        5.0016208E-18
   1.205669        5.0014516E-18
   1.332462        5.0012895E-18
   1.459255        5.0011336E-18
   1.586047        5.0009834E-18
   1.712840        5.0008395E-18
   1.839633        5.0007001E-18
   1.966425        5.0005620E-18
   2.093218        5.0004255E-18
   2.220011        5.0002874E-18
   2.346803        5.0001472E-18
   2.473596        5.0000049E-18
   2.600389        4.9998605E-18
   2.727181        4.9997145E-18
   2.853974        4.9995685E-18
   2.980767        4.9994221E-18
   3.107559        4.9992782E-18
   3.234352        4.9991359E-18
   3.361145        4.9989953E-18
   3.487937        4.9988547E-18
   3.614730        4.9987161E-18
   3.741522        4.9985788E-18
   3.868315        4.9984419E-18
   3.995108        4.9983063E-18
   4.121901        4.9981735E-18
   4.248693        4.9980424E-18
   4.375485        4.9979125E-18
   4.502278        4.9977814E-18
   4.629071        4.9976495E-18
   4.755864        4.9975142E-18
   4.882656        4.9973761E-18
   5.009449        4.9972355E-18
   5.136241        4.9970916E-18
   5.263034        4.9969460E-18
   5.389827        4.9967979E-18
   5.516620        4.9966474E-18
   5.643412        4.9964939E-18
   5.770205        4.9963359E-18
   5.896997        4.9961742E-18
   6.023790        4.9960079E-18
   6.150583        4.9958375E-18
   6.277375        4.9956647E-18
   6.404168        4.9954893E-18
   6.530961        4.9953127E-18
   6.657753        4.9951353E-18
   6.784546        4.9949566E-18
   6.911339        4.9947779E-18
   7.038131        4.9945988E-18
   7.164924        4.9944198E-18
   7.291717        4.9942427E-18
   7.418509        4.9940694E-18
   7.545302        4.9939019E-18
   7.672095        4.9937402E-18
   7.798887        4.9935839E-18
   7.925680        4.9934325E-18
   8.052472        4.9932857E-18
   8.179265        4.9931397E-18
   8.306058        4.9929929E-18
   8.432851        4.9928456E-18
   8.559643        4.9926955E-18
   8.686436        4.9925441E-18
   8.813229        4.9923903E-18
   8.940022        4.9922339E-18
   9.066813        4.9920751E-18
   9.193606        4.9919130E-18
   9.320399        4.9917467E-18
   9.447192        4.9915767E-18
   9.573984        4.9914026E-18
   9.700777        4.9912273E-18
   9.827570        4.9910519E-18
   9.954362        4.9908786E-18
   10.08115        4.9907107E-18
   10.20795        4.9905473E-18
   10.33474        4.9903893E-18
   10.46153        4.9902351E-18
   10.58833        4.9900845E-18
   10.71512        4.9899377E-18
   10.84191        4.9897925E-18
   10.96870        4.9896482E-18
   11.09550        4.9895042E-18
   11.22229        4.9893595E-18
   11.34908        4.9892110E-18
   11.47587        4.9890584E-18
   11.60267        4.9888975E-18
   11.72946        4.9887283E-18
   11.85625        4.9885484E-18
   11.98304        4.9883578E-18
   12.10984        4.9881580E-18
   12.23663        4.9879491E-18
   12.36342        4.9877308E-18
   12.49022        4.9875041E-18
   12.61701        4.9872684E-18
   12.74380        4.9870231E-18
   12.87059        4.9867659E-18
   12.99739        4.9864962E-18
   13.12418        4.9862116E-18
   13.25097        4.9859122E-18
   13.37776        4.9855966E-18
   13.50456        4.9852654E-18
   13.63135        4.9849183E-18
   13.75814        4.9845556E-18
   13.88493        4.9841788E-18
   14.01173        4.9837864E-18
   14.13852        4.9833810E-18
   14.26531        4.9829637E-18
   14.39211        4.9825385E-18
   14.51890        4.9821072E-18
   14.64569        4.9816725E-18
   14.77248        4.9812362E-18
   14.89928        4.9807973E-18
   15.02607        4.9803573E-18
   15.15286        4.9799151E-18
   15.27965        4.9794672E-18
   15.40645        4.9790135E-18
   15.53324        4.9785532E-18
   15.66003        4.9780850E-18
   15.78682        4.9776114E-18
   15.91362        4.9771333E-18
   16.04041        4.9766503E-18
   16.16720        4.9761639E-18
   16.29399        4.9756754E-18
   16.42079        4.9751857E-18
   16.54758        4.9746944E-18
   16.67437        4.9742043E-18
   16.80116        4.9737146E-18
   16.92796        4.9732282E-18
   17.05475        4.9727443E-18
   17.18154        4.9722641E-18
   17.30834        4.9717881E-18
   17.43513        4.9713170E-18
   17.56192        4.9708488E-18
   17.68871        4.9703856E-18
   17.81551        4.9699274E-18
   17.94230        4.9694745E-18
   18.06909        4.9690290E-18
   18.19588        4.9685915E-18
   18.32268        4.9681626E-18
   18.44947        4.9677424E-18
   18.57626        4.9673308E-18
   18.70305        4.9669272E-18
   18.82985        4.9665297E-18
   18.95664        4.9661360E-18
   19.08343        4.9657455E-18
   19.21023        4.9653555E-18
   19.33702        4.9649663E-18
   19.46381        4.9645747E-18
   19.59060        4.9641797E-18
   19.71740        4.9637806E-18
   19.84419        4.9633757E-18
   19.97098        4.9629654E-18
   20.09777        4.9625497E-18
   20.22457        4.9621299E-18
   20.35136        4.9617097E-18
   20.47815        4.9612903E-18
   20.60494        4.9608751E-18
   20.73174        4.9604665E-18
   20.85853        4.9600649E-18
   20.98532        4.9596716E-18
   21.11212        4.9592844E-18
   21.23891        4.9589039E-18
   21.36570        4.9585288E-18
   21.49249        4.9581607E-18
   21.61929        4.9577980E-18
   21.74608        4.9574411E-18
   21.87287        4.9570916E-18
   21.99966        4.9567500E-18
   22.12646        4.9564158E-18
   22.25325        4.9560915E-18
   22.38004        4.9557759E-18
   22.50683        4.9554715E-18
   22.63363        4.9551771E-18
   22.76042        4.9548946E-18
   22.88721        4.9546224E-18
   23.01401        4.9543611E-18
   23.14080        4.9541088E-18
   23.26759        4.9538623E-18
   23.39438        4.9536199E-18
   23.52118        4.9533788E-18
   23.64797        4.9531364E-18
   23.77476        4.9528916E-18
   23.90155        4.9526434E-18
   24.02835        4.9523936E-18
   24.15514        4.9521426E-18
   24.28193        4.9518907E-18
   24.40872        4.9516380E-18
   24.53552        4.9513853E-18
   24.66231        4.9511330E-18
   24.78910        4.9508799E-18
   24.91590        4.9506263E-18
   25.04269        4.9503728E-18
   25.16948        4.9501193E-18
   25.29627        4.9498666E-18
   25.42307        4.9496147E-18
   25.54986        4.9493636E-18
   25.67665        4.9491130E-18
   25.80344        4.9488624E-18
   25.93024        4.9486130E-18
   26.05703        4.9483644E-18
   26.18382        4.9481183E-18
   26.31061        4.9478760E-18
   26.43741        4.9476381E-18
   26.56420        4.9474065E-18
   26.69099        4.9471791E-18
   26.81779        4.9469561E-18
   26.94458        4.9467357E-18
   27.07137        4.9465169E-18
   27.19816        4.9462977E-18
   27.32495        4.9460768E-18
   27.45175        4.9458531E-18
   27.57854        4.9456277E-18
   27.70533        4.9453990E-18
   27.83213        4.9451653E-18
   27.95892        4.9449283E-18
   28.08571        4.9446851E-18
   28.21250        4.9444382E-18
   28.33930        4.9441876E-18
   28.46609        4.9439349E-18
   28.59288        4.9436822E-18
   28.71968        4.9434328E-18
   28.84647        4.9431867E-18
   28.97326        4.9429464E-18
   29.10005        4.9427119E-18
   29.22684        4.9424819E-18
   29.35364        4.9422553E-18
   29.48043        4.9420286E-18
   29.60722        4.9418007E-18
   29.73402        4.9415687E-18
   29.86081        4.9413297E-18
   29.98760        4.9410848E-18
   30.11439        4.9408321E-18
   30.24119        4.9405711E-18
   30.36798        4.9403015E-18
   30.49477        4.9400235E-18
   30.62156        4.9397373E-18
   30.74836        4.9394433E-18
   30.87515        4.9391430E-18
   31.00194        4.9388353E-18
   31.12873        4.9385210E-18
   31.25553        4.9381992E-18
   31.38232        4.9378687E-18
   31.50911        4.9375296E-18
   31.63591        4.9371801E-18
   31.76270        4.9368203E-18
   31.88949        4.9364518E-18
   32.01628        4.9360754E-18
   32.14308        4.9356945E-18
   32.26987        4.9353103E-18
   32.39666        4.9349256E-18
   32.52345        4.9345410E-18
   32.65025        4.9341584E-18
   32.77704        4.9337767E-18
   32.90383        4.9333945E-18
   33.03062        4.9330115E-18
   33.15742        4.9326265E-18
   33.28421        4.9322385E-18
   33.41100        4.9318485E-18
   33.53780        4.9314548E-18
   33.66459        4.9310590E-18
   33.79138        4.9306615E-18
   33.91817        4.9302624E-18
   34.04497        4.9298616E-18
   34.17176        4.9294609E-18
   34.29855        4.9290601E-18
   34.42534        4.9286597E-18
   34.55214        4.9282602E-18
   34.67893        4.9278619E-18
   34.80572        4.9274628E-18
   34.93251        4.9270649E-18
   35.05931        4.9266662E-18
   35.18610        4.9262671E-18
   35.31289        4.9258676E-18
   35.43969        4.9254672E-18
   35.56648        4.9250665E-18
   35.69327        4.9246665E-18
   35.82006        4.9242670E-18
   35.94686        4.9238683E-18
   36.07365        4.9234717E-18
   36.20044        4.9230763E-18
   36.32723        4.9226825E-18
   36.45403        4.9222908E-18
   36.58082        4.9219021E-18
   36.70761        4.9215162E-18
   36.83440        4.9211340E-18
   36.96120        4.9207552E-18
   37.08799        4.9203805E-18
   37.21478        4.9200087E-18
   37.34158        4.9196385E-18
   37.46837        4.9192679E-18
   37.59516        4.9188944E-18
   37.72195        4.9185148E-18
   37.84875        4.9181281E-18
   37.97554        4.9177323E-18
   38.10233        4.9173265E-18
   38.22912        4.9169105E-18
   38.35592        4.9164865E-18
   38.48271        4.9160572E-18
   38.60950        4.9156250E-18
   38.73629        4.9151932E-18
   38.86309        4.9147656E-18
   38.98988        4.9143441E-18
   39.11667        4.9139318E-18
   39.24347        4.9135289E-18
   39.37026        4.9131360E-18
   39.49705        4.9127522E-18
   39.62384        4.9123758E-18
   39.75064        4.9120049E-18
   39.87743        4.9116368E-18
   40.00422        4.9112703E-18
   40.13101        4.9109031E-18
   40.25780        4.9105350E-18
   40.38460        4.9101677E-18
   40.51139        4.9098025E-18
   40.63818        4.9094394E-18
   40.76498        4.9090787E-18
   40.89177        4.9087222E-18
   41.01856        4.9083686E-18
   41.14536        4.9080178E-18
   41.27215        4.9076667E-18
   41.39894        4.9073147E-18
   41.52573        4.9069591E-18
   41.65253        4.9065972E-18
   41.77932        4.9062278E-18
   41.90611        4.9058498E-18
   42.03290        4.9054639E-18
   42.15969        4.9050689E-18
   42.28649        4.9046661E-18
   42.41328        4.9042567E-18
   42.54007        4.9038427E-18
   42.66687        4.9034266E-18
   42.79366        4.9030080E-18
   42.92045        4.9025903E-18
   43.04725        4.9021751E-18
   43.17404        4.9017619E-18
   43.30083        4.9013516E-18
   43.42762        4.9009450E-18
   43.55442        4.9005401E-18
   43.68121        4.9001377E-18
   43.80800        4.8997374E-18
   43.93479        4.8993387E-18
   44.06158        4.8989412E-18
   44.18838        4.8985458E-18
   44.31517        4.8981521E-18
   44.44196        4.8977604E-18
   44.56876        4.8973687E-18
   44.69555        4.8969775E-18
   44.82234        4.8965841E-18
   44.94913        4.8961867E-18
   45.07593        4.8957847E-18
   45.20272        4.8953769E-18
   45.32951        4.8949629E-18
   45.45631        4.8945414E-18
   45.58310        4.8941142E-18
   45.70989        4.8936803E-18
   45.83668        4.8932423E-18
   45.96347        4.8928010E-18
   46.09027        4.8923597E-18
   46.21706        4.8919201E-18
   46.34385        4.8914854E-18
   46.47065        4.8910590E-18
   46.59744        4.8906425E-18
   46.72423        4.8902376E-18
   46.85102        4.8898459E-18
   46.97782        4.8894658E-18
   47.10461        4.8890969E-18
   47.23140        4.8887354E-18
   47.35820        4.8883793E-18
   47.48499        4.8880265E-18
   47.61178        4.8876729E-18
   47.73857        4.8873168E-18
   47.86536        4.8869562E-18
   47.99216        4.8865897E-18
   48.11895        4.8862171E-18
   48.24574        4.8858358E-18
   48.37254        4.8854474E-18
   48.49933        4.8850512E-18
   48.62612        4.8846475E-18
   48.75291        4.8842385E-18
   48.87971        4.8838245E-18
   49.00650        4.8834063E-18
   49.13329        4.8829853E-18
   49.26009        4.8825601E-18
   49.38688        4.8821304E-18
   49.51367        4.8816965E-18
   49.64046        4.8812561E-18
   49.76725        4.8808098E-18
   49.89405        4.8803569E-18
   50.02084        4.8798966E-18
   50.14763        4.8794313E-18
   50.27443        4.8789619E-18
   50.40122        4.8784896E-18
   50.52801        4.8780177E-18
   50.65480        4.8775491E-18
   50.78160        4.8770858E-18
   50.90839        4.8766305E-18
   51.03518        4.8761867E-18
   51.16198        4.8757557E-18
   51.28877        4.8753380E-18
   51.41556        4.8749343E-18
   51.54235        4.8745414E-18
   51.66914        4.8741568E-18
   51.79594        4.8737784E-18
   51.92273        4.8734016E-18
   52.04952        4.8730227E-18
   52.17632        4.8726397E-18
   52.30311        4.8722510E-18
   52.42990        4.8718564E-18
   52.55669        4.8714577E-18
   52.68349        4.8710553E-18
   52.81028        4.8706508E-18
   52.93707        4.8702459E-18
   53.06387        4.8698406E-18
   53.19066        4.8694352E-18
   53.31745        4.8690299E-18
   53.44424        4.8686221E-18
   53.57103        4.8682102E-18
   53.69783        4.8677921E-18
   53.82462        4.8673665E-18
   53.95141        4.8669322E-18
   54.07821        4.8664888E-18
   54.20500        4.8660372E-18
   54.33179        4.8655781E-18
   54.45858        4.8651153E-18
   54.58538        4.8646529E-18
   54.71217        4.8641934E-18
   54.83896        4.8637401E-18
   54.96576        4.8632959E-18
   55.09255        4.8628621E-18
   55.21934        4.8624385E-18
   55.34613        4.8620258E-18
   55.47292        4.8616200E-18
   55.59972        4.8612213E-18
   55.72651        4.8608260E-18
   55.85330        4.8604335E-18
   55.98009        4.8600405E-18
   56.10689        4.8596468E-18
   56.23368        4.8592506E-18
   56.36047        4.8588531E-18
   56.48727        4.8584528E-18
   56.61406        4.8580487E-18
   56.74085        4.8576434E-18
   56.86765        4.8572364E-18
   56.99444        4.8568298E-18
   57.12123        4.8564229E-18
   57.24802        4.8560159E-18
   57.37481        4.8556093E-18
   57.50161        4.8551999E-18
   57.62840        4.8547871E-18
   57.75519        4.8543686E-18
   57.88198        4.8539430E-18
   58.00878        4.8535075E-18
   58.13557        4.8530624E-18
   58.26236        4.8526100E-18
   58.38916        4.8521492E-18
   58.51595        4.8516827E-18
   58.64274        4.8512129E-18
   58.76954        4.8507410E-18
   58.89633        4.8502703E-18
   59.02312        4.8498034E-18
   59.14991        4.8493414E-18
   59.27670        4.8488864E-18
   59.40350        4.8484377E-18
   59.53029        4.8479951E-18
   59.65708        4.8475584E-18
   59.78387        4.8471258E-18
   59.91067        4.8466948E-18
   60.03746        4.8462663E-18
   60.16425        4.8458395E-18
   60.29105        4.8454148E-18
   60.41784        4.8449929E-18
   60.54463        4.8445752E-18
   60.67142        4.8441632E-18
   60.79822        4.8437583E-18
   60.92501        4.8433588E-18
   61.05180        4.8429642E-18
   61.17859        4.8425717E-18
   61.30539        4.8421788E-18
   61.43218        4.8417826E-18
   61.55897        4.8413802E-18
   61.68576        4.8409703E-18
   61.81256        4.8405522E-18
   61.93935        4.8401245E-18
   62.06614        4.8396878E-18
   62.19294        4.8392448E-18
   62.31973        4.8387965E-18
   62.44652        4.8383461E-18
   62.57331        4.8378953E-18
   62.70011        4.8374461E-18
   62.82690        4.8369986E-18
   62.95369        4.8365544E-18
   63.08048        4.8361139E-18
   63.20728        4.8356764E-18
   63.33407        4.8352421E-18
   63.46086        4.8348099E-18
   63.58765        4.8343797E-18
   63.71445        4.8339521E-18
   63.84124        4.8335257E-18
   63.96803        4.8331018E-18
   64.09483        4.8326803E-18
   64.22162        4.8322613E-18
   64.34841        4.8318444E-18
   64.47520        4.8314288E-18
   64.60200        4.8310127E-18
   64.72879        4.8305954E-18
   64.85558        4.8301752E-18
   64.98238        4.8297484E-18
   65.10917        4.8293157E-18
   65.23596        4.8288753E-18
   65.36275        4.8284257E-18
   65.48955        4.8279695E-18
   65.61633        4.8275071E-18
   65.74313        4.8270398E-18
   65.86992        4.8265691E-18
   65.99671        4.8260984E-18
   66.12350        4.8256294E-18
   66.25030        4.8251625E-18
   66.37709        4.8246997E-18
   66.50388        4.8242410E-18
   66.63068        4.8237856E-18
   66.75747        4.8233340E-18
   66.88426        4.8228844E-18
   67.01105        4.8224373E-18
   67.13785        4.8219907E-18
   67.26464        4.8215452E-18
   67.39143        4.8211010E-18
   67.51823        4.8206593E-18
   67.64502        4.8202209E-18
   67.77181        4.8197879E-18
   67.89861        4.8193619E-18
   68.02540        4.8189433E-18
   68.15219        4.8185343E-18
   68.27898        4.8181327E-18
   68.40578        4.8177398E-18
   68.53257        4.8173522E-18
   68.65936        4.8169701E-18
   68.78616        4.8165904E-18
   68.91295        4.8162120E-18
   69.03974        4.8158335E-18
   69.16653        4.8154518E-18
   69.29333        4.8150655E-18
   69.42011        4.8146726E-18
   69.54691        4.8142726E-18
   69.67370        4.8138648E-18
   69.80049        4.8134496E-18
   69.92728        4.8130273E-18
   70.05408        4.8125988E-18
   70.18087        4.8121658E-18
   70.30766        4.8117307E-18
   70.43446        4.8112927E-18
   70.56125        4.8108560E-18
   70.68804        4.8104209E-18
   70.81483        4.8099858E-18
   70.94163        4.8095515E-18
   71.06842        4.8091164E-18
   71.19521        4.8086784E-18
   71.32201        4.8082371E-18
   71.44880        4.8077921E-18
   71.57559        4.8073405E-18
   71.70238        4.8068839E-18
   71.82918        4.8064215E-18
   71.95597        4.8059537E-18
   72.08276        4.8054818E-18
   72.20956        4.8050078E-18
   72.33635        4.8045347E-18
   72.46314        4.8040652E-18
   72.58994        4.8035991E-18
   72.71673        4.8031371E-18
   72.84352        4.8026797E-18
   72.97031        4.8022243E-18
   73.09711        4.8017715E-18
   73.22389        4.8013186E-18
   73.35069        4.8008636E-18
   73.47748        4.8004062E-18
   73.60427        4.7999467E-18
   73.73106        4.7994864E-18
   73.85786        4.7990260E-18
   73.98465        4.7985674E-18
   74.11144        4.7981141E-18
   74.23824        4.7976678E-18
   74.36503        4.7972298E-18
   74.49182        4.7968018E-18
   74.61861        4.7963840E-18
   74.74541        4.7959754E-18
   74.87220        4.7955751E-18
   74.99899        4.7951784E-18
   75.12579        4.7947839E-18
   75.25258        4.7943856E-18
   75.37937        4.7939827E-18
   75.50616        4.7935720E-18
   75.63296        4.7931506E-18
   75.75975        4.7927192E-18
   75.88654        4.7922787E-18
   76.01334        4.7918312E-18
   76.14013        4.7913808E-18
   76.26692        4.7909296E-18
   76.39371        4.7904804E-18
   76.52051        4.7900354E-18
   76.64730        4.7895958E-18
   76.77409        4.7891615E-18
   76.90089        4.7887301E-18
   77.02767        4.7883017E-18
   77.15446        4.7878748E-18
   77.28126        4.7874468E-18
   77.40805        4.7870150E-18
   77.53484        4.7865790E-18
   77.66164        4.7861382E-18
   77.78843        4.7856931E-18
   77.91522        4.7852448E-18
   78.04202        4.7847969E-18
   78.16881        4.7843510E-18
   78.29560        4.7839110E-18
   78.42239        4.7834800E-18
   78.54919        4.7830610E-18
   78.67598        4.7826541E-18
   78.80277        4.7822591E-18
   78.92957        4.7818753E-18
   79.05636        4.7814993E-18
   79.18315        4.7811283E-18
   79.30994        4.7807578E-18
   79.43674        4.7803839E-18
   79.56353        4.7800013E-18
   79.69032        4.7796092E-18
   79.81712        4.7792035E-18
   79.94391        4.7787833E-18
   80.07070        4.7783490E-18
   80.19749        4.7779011E-18
   80.32429        4.7774404E-18
   80.45108        4.7769676E-18
   80.57787        4.7764858E-18
   80.70466        4.7759969E-18
   80.83145        4.7755014E-18
   80.95824        4.7750014E-18
   81.08504        4.7744972E-18
   81.21183        4.7739881E-18
   81.33862        4.7734765E-18
   81.46542        4.7729645E-18
   81.59221        4.7724566E-18
   81.71900        4.7719553E-18
   81.84579        4.7714677E-18
   81.97259        4.7709999E-18
   82.09938        4.7705582E-18
   82.22617        4.7701471E-18
   82.35297        4.7697699E-18
   82.47976        4.7694266E-18
   82.60655        4.7691164E-18
   82.73335        4.7688348E-18
   82.86014        4.7685750E-18
   82.98693        4.7683261E-18
   83.11372        4.7680792E-18
   83.24052        4.7678240E-18
   83.36731        4.7675465E-18
   83.49410        4.7672363E-18
   83.62090        4.7668831E-18
   83.74769        4.7664781E-18
   83.87448        4.7660141E-18
   84.00127        4.7654855E-18
   84.12807        4.7648895E-18
   84.25486        4.7642257E-18
   84.38165        4.7634966E-18
   84.50844        4.7627054E-18
   84.63523        4.7618617E-18
   84.76202        4.7609753E-18
   84.88882        4.7600617E-18
   85.01561        4.7591394E-18
   85.14240        4.7582316E-18
   85.26920        4.7573634E-18
   85.39599        4.7565619E-18
   85.52278        4.7558559E-18
   85.64957        4.7552736E-18
   85.77637        4.7548401E-18
   85.90316        4.7545763E-18
   86.02995        4.7544956E-18
   86.15675        4.7546044E-18
   86.28354        4.7549001E-18
   86.41033        4.7553695E-18
   86.53712        4.7559895E-18
   86.66392        4.7567273E-18
   86.79071        4.7575388E-18
   86.91750        4.7583714E-18
   87.04430        4.7591667E-18
   87.17109        4.7598582E-18
   87.29788        4.7603777E-18
   87.42467        4.7606564E-18
   87.55147        4.7606300E-18
   87.67826        4.7602391E-18
   87.80505        4.7594355E-18
   87.93185        4.7581852E-18
   88.05864        4.7564722E-18
   88.18543        4.7543004E-18
   88.31222        4.7516960E-18
   88.43901        4.7487120E-18
   88.56580        4.7454260E-18
   88.69260        4.7419394E-18
   88.81939        4.7383776E-18
   88.94618        4.7348848E-18
   89.07298        4.7316191E-18
   89.19977        4.7287480E-18
   89.32656        4.7264368E-18
   89.45335        4.7248461E-18
   89.58015        4.7241166E-18
   89.70694        4.7243668E-18
   89.83373        4.7256795E-18
   89.96053        4.7280961E-18
   90.08732        4.7316092E-18
   90.21411        4.7361562E-18
   90.34090        4.7416189E-18
   90.46770        4.7478178E-18
   90.59449        4.7545188E-18
   90.72128        4.7614340E-18
   90.84808        4.7682318E-18
   90.97487        4.7745485E-18
   91.10166        4.7800001E-18
   91.22845        4.7842026E-18
   91.35525        4.7867858E-18
   91.48204        4.7874186E-18
   91.60883        4.7858251E-18
   91.73563        4.7818075E-18
   91.86242        4.7752649E-18
   91.98921        4.7662077E-18
   92.11600        4.7547723E-18
   92.24279        4.7412264E-18
   92.36958        4.7259715E-18
   92.49638        4.7095367E-18
   92.62317        4.6925696E-18
   92.74996        4.6758125E-18
   92.87675        4.6600796E-18
   93.00355        4.6462239E-18
   93.13034        4.6350970E-18
   93.25713        4.6275106E-18
   93.38393        4.6241874E-18
   93.51072        4.6257176E-18
   93.63751        4.6325187E-18
   93.76431        4.6447920E-18
   93.89110        4.6624937E-18
   94.01789        4.6853077E-18
   94.14468        4.7126357E-18
   94.27148        4.7435963E-18
   94.39827        4.7770392E-18
   94.52506        4.8115752E-18
   94.65186        4.8456182E-18
   94.77865        4.8774436E-18
   94.90544        4.9052600E-18
   95.03223        4.9272895E-18
   95.15903        4.9418603E-18
   95.28582        4.9474967E-18
   95.41261        4.9430130E-18
   95.53941        4.9276030E-18
   95.66620        4.9009186E-18
   95.79299        4.8631342E-18
   95.91978        4.8149886E-18
   96.04657        4.7578085E-18
   96.17336        4.6934968E-18
   96.30016        4.6244988E-18
   96.42695        4.5537352E-18
   96.55374        4.4844977E-18
   96.68053        4.4203283E-18
   96.80733        4.3648584E-18
   96.93412        4.3216444E-18
   97.06091        4.2939744E-18
   97.18771        4.2846810E-18
   97.31450        4.2959555E-18
   97.44129        4.3291717E-18
   97.56808        4.3847405E-18
   97.69488        4.4619913E-18
   97.82167        4.5591048E-18
   97.94846        4.6730899E-18
   98.07526        4.7998201E-18
   98.20205        4.9341303E-18
   98.32884        5.0699786E-18
   98.45564        5.2006607E-18
   98.58243        5.3190894E-18
   98.70922        5.4181112E-18
   98.83601        5.4908601E-18
   98.96281        5.5311380E-18
   99.08960        5.5337849E-18
   99.21639        5.4950460E-18
   99.34319        5.4128991E-18
   99.46998        5.2873199E-18
   99.59677        5.1204821E-18
   99.72356        4.9168588E-18
   99.85035        4.6832212E-18
   99.97714        4.4285186E-18
   100.1039        4.1636388E-18
   100.2307        3.9010466E-18
   100.3575        3.6543073E-18
   100.4843        3.4375097E-18
   100.6111        3.2646073E-18
   100.7379        3.1486969E-18
   100.8647        3.1012823E-18
   100.9915        3.1315311E-18
   101.1183        3.2455918E-18
   101.2451        3.4459873E-18
   101.3719        3.7311346E-18
   101.4987        4.0950259E-18
   101.6255        4.5270950E-18
   101.7522        5.0123059E-18
   101.8790        5.5314680E-18
   102.0058        6.0617921E-18
   102.1326        6.5776761E-18
   102.2594        7.0517106E-18
   102.3862        7.4558652E-18
   102.5130        7.7628196E-18
   102.6398        7.9473925E-18
   102.7666        7.9879880E-18
   102.8934        7.8680154E-18
   103.0202        7.5771845E-18
   103.1470        7.1126184E-18
   103.2738        6.4797065E-18
   103.4006        5.6926326E-18
   103.5273        4.7745167E-18
   103.6541        3.7571400E-18
   103.7809        2.6802161E-18
   103.9077        1.5902110E-18
   104.0345        5.3872402E-19
   104.1613       -4.1952703E-19
   104.2881       -1.2290612E-18
   104.4149       -1.8362357E-18
   104.5417       -2.1920036E-18
   104.6685       -2.2546882E-18
   104.7953       -1.9926684E-18
   104.9221       -1.3868045E-18
   105.0489       -4.3250108E-19
   105.1756        8.5876123E-19
   105.3024        2.4585051E-18
   105.4292        4.3210848E-18
   105.5560        6.3843074E-18
   105.6828        8.5708824E-18
   105.8096        1.0790737E-17
   105.9364        1.2944108E-17
   106.0632        1.4925374E-17
   106.1900        1.6627480E-17
   106.3168        1.7946803E-17
   106.4436        1.8788274E-17
   106.5704        1.9070513E-17
   106.6972        1.8730765E-17
   106.8240        1.7729356E-17
   106.9507        1.6053440E-17
   107.0775        1.3719826E-17
   107.2043        1.0776616E-17
   107.3311        7.3035507E-18
   107.4579        3.4109150E-18
   107.5847       -7.6307153E-19
   107.7115       -5.0563388E-18
   107.8383       -9.2884665E-18
   107.9651       -1.3267467E-17
   108.0919       -1.6797595E-17
   108.2187       -1.9687921E-17
   108.3455       -2.1761339E-17
   108.4723       -2.2863581E-17
   108.5990       -2.2871878E-17
   108.7258       -2.1702774E-17
   108.8526       -1.9318734E-17
   108.9794       -1.5733108E-17
   109.1062       -1.1013139E-17
   109.2330       -5.2807330E-18
   109.3598        1.2892349E-18
   109.4866        8.4731212E-18
   109.6134        1.6005192E-17
   109.7402        2.3586683E-17
   109.8670        3.0896956E-17
   109.9938        3.7606370E-17
   110.1206        4.3390378E-17
   110.2474        4.7944288E-17
   110.3741        5.0998060E-17
   110.5009        5.2330456E-17
   110.6277        5.1781801E-17