  -4.500000        7.8505199E-19
  -4.373208        7.8506239E-19
  -4.246415        7.8508105E-19
  -4.119622        7.8510773E-19
  -3.992829        7.8513921E-19
  -3.866037        7.8517230E-19
  -3.739244        7.8520492E-19
  -3.612452        7.8523372E-19
  -3.485659        7.8525662E-19
  -3.358866        7.8527368E-19
  -3.232074        7.8528469E-19
  -3.105281        7.8529100E-19
  -2.978488        7.8529353E-19
  -2.851696        7.8529586E-19
  -2.724903        7.8529886E-19
  -2.598110        7.8530666E-19
  -2.471318        7.8532057E-19
  -2.344525        7.8534171E-19
  -2.217732        7.8537061E-19
  -2.090940        7.8540613E-19
  -1.964147        7.8544630E-19
  -1.837354        7.8548859E-19
  -1.710562        7.8553155E-19
  -1.583769        7.8557167E-19
  -1.456976        7.8560719E-19
  -1.330184        7.8563614E-19
  -1.203391        7.8565775E-19
  -1.076598        7.8567238E-19
 -0.9498057        7.8568070E-19
 -0.8230131        7.8568406E-19
 -0.6962205        7.8568468E-19
 -0.5694278        7.8568577E-19
 -0.4426351        7.8568908E-19
 -0.3158425        7.8569688E-19
 -0.1890498        7.8571058E-19
 -6.2257171E-02    7.8573163E-19
  6.4535484E-02    7.8575970E-19
  0.1913281        7.8579387E-19
  0.3181208        7.8583197E-19
  0.4449134        7.8587199E-19
  0.5717061        7.8591174E-19
  0.6984987        7.8594855E-19
  0.8252914        7.8598035E-19
  0.9520841        7.8600578E-19
   1.078877        7.8602455E-19
   1.205669        7.8603711E-19
   1.332462        7.8604549E-19
   1.459255        7.8605123E-19
   1.586047        7.8605645E-19
   1.712840        7.8606384E-19
   1.839633        7.8607599E-19
   1.966425        7.8609471E-19
   2.093218        7.8612143E-19
   2.220011        7.8615618E-19
   2.346803        7.8619738E-19
   2.473596        7.8624443E-19
   2.600389        7.8629452E-19
   2.727181        7.8634596E-19
   2.853974        7.8639461E-19
   2.980767        7.8643773E-19
   3.107559        7.8647443E-19
   3.234352        7.8650323E-19
   3.361145        7.8652401E-19
   3.487937        7.8653808E-19
   3.614730        7.8654692E-19
   3.741522        7.8655203E-19
   3.868315        7.8655617E-19
   3.995108        7.8656222E-19
   4.121901        7.8657292E-19
   4.248693        7.8658936E-19
   4.375485        7.8661268E-19
   4.502278        7.8664235E-19
   4.629071        7.8667782E-19
   4.755864        7.8671726E-19
   4.882656        7.8675847E-19
   5.009449        7.8679895E-19
   5.136241        7.8683664E-19
   5.263034        7.8686874E-19
   5.389827        7.8689449E-19
   5.516620        7.8691284E-19
   5.643412        7.8692396E-19
   5.770205        7.8692964E-19
   5.896997        7.8693135E-19
   6.023790        7.8693176E-19
   6.150583        7.8693445E-19
   6.277375        7.8694158E-19
   6.404168        7.8695482E-19
   6.530961        7.8697581E-19
   6.657753        7.8700409E-19
   6.784546        7.8703950E-19
   6.911339        7.8708003E-19
   7.038131        7.8712294E-19
   7.164924        7.8716585E-19
   7.291717        7.8720608E-19
   7.418509        7.8723994E-19
   7.545302        7.8726625E-19
   7.672095        7.8728362E-19
   7.798887        7.8729246E-19
   7.925680        7.8729376E-19
   8.052472        7.8728890E-19
   8.179265        7.8728212E-19
   8.306058        7.8727644E-19
   8.432851        7.8727416E-19
   8.559643        7.8727871E-19
   8.686436        7.8729133E-19
   8.813229        7.8731257E-19
   8.940022        7.8734116E-19
   9.066813        7.8737575E-19
   9.193606        7.8741334E-19
   9.320399        7.8745206E-19
   9.447192        7.8748830E-19
   9.573984        7.8752035E-19
   9.700777        7.8754589E-19
   9.827570        7.8756419E-19
   9.954362        7.8757500E-19
   10.08115        7.8758063E-19
   10.20795        7.8758229E-19
   10.33474        7.8758213E-19
   10.46153        7.8758317E-19
   10.58833        7.8758766E-19
   10.71512        7.8759769E-19
   10.84191        7.8761434E-19
   10.96870        7.8763823E-19
   11.09550        7.8766795E-19
   11.22229        7.8770259E-19
   11.34908        7.8773950E-19
   11.47587        7.8777569E-19
   11.60267        7.8780930E-19
   11.72946        7.8783752E-19
   11.85625        7.8785965E-19
   11.98304        7.8787433E-19
   12.10984        7.8788214E-19
   12.23663        7.8788390E-19
   12.36342        7.8788188E-19
   12.49022        7.8787816E-19
   12.61701        7.8787475E-19
   12.74380        7.8787387E-19
   12.87059        7.8787775E-19
   12.99739        7.8788752E-19
   13.12418        7.8790406E-19
   13.25097        7.8792702E-19
   13.37776        7.8795628E-19
   13.50456        7.8798998E-19
   13.63135        7.8802685E-19
   13.75814        7.8806495E-19
   13.88493        7.8810274E-19
   14.01173        7.8813846E-19
   14.13852        7.8817057E-19
   14.26531        7.8819812E-19
   14.39211        7.8822030E-19
   14.51890        7.8823747E-19
   14.64569        7.8824946E-19
   14.77248        7.8825737E-19
   14.89928        7.8826202E-19
   15.02607        7.8826533E-19
   15.15286        7.8826828E-19
   15.27965        7.8827164E-19
   15.40645        7.8827583E-19
   15.53324        7.8828177E-19
   15.66003        7.8828865E-19
   15.78682        7.8829583E-19
   15.91362        7.8830188E-19
   16.04041        7.8830488E-19
   16.16720        7.8830292E-19
   16.29399        7.8829346E-19
   16.42079        7.8827531E-19
   16.54758        7.8824657E-19
   16.67437        7.8820707E-19
   16.80116        7.8815578E-19
   16.92796        7.8809390E-19
   17.05475        7.8802240E-19
   17.18154        7.8794459E-19
   17.30834        7.8786182E-19
   17.43513        7.8777688E-19
   17.56192        7.8769287E-19
   17.68871        7.8761062E-19
   17.81551        7.8753157E-19
   17.94230        7.8745568E-19
   18.06909        7.8738139E-19
   18.19588        7.8730653E-19
   18.32268        7.8722872E-19
   18.44947        7.8714486E-19
   18.57626        7.8705232E-19
   18.70305        7.8694893E-19
   18.82985        7.8683266E-19
   18.95664        7.8670351E-19
   19.08343        7.8656139E-19
   19.21023        7.8640935E-19
   19.33702        7.8624794E-19
   19.46381        7.8608137E-19
   19.59060        7.8591319E-19
   19.71740        7.8574677E-19
   19.84419        7.8558558E-19
   19.97098        7.8543115E-19
   20.09777        7.8528531E-19
   20.22457        7.8514805E-19
   20.35136        7.8501932E-19
   20.47815        7.8489762E-19
   20.60494        7.8478104E-19
   20.73174        7.8466694E-19
   20.85853        7.8455305E-19
   20.98532        7.8443941E-19
   21.11212        7.8432361E-19
   21.23891        7.8420589E-19
   21.36570        7.8408704E-19
   21.49249        7.8396756E-19
   21.61929        7.8384948E-19
   21.74608        7.8373476E-19
   21.87287        7.8362397E-19
   21.99966        7.8351794E-19
   22.12646        7.8341635E-19
   22.25325        7.8331719E-19
   22.38004        7.8321772E-19
   22.50683        7.8311293E-19
   22.63363        7.8299878E-19
   22.76042        7.8286912E-19
   22.88721        7.8271981E-19
   23.01401        7.8254517E-19
   23.14080        7.8234246E-19
   23.26759        7.8210997E-19
   23.39438        7.8184750E-19
   23.52118        7.8155607E-19
   23.64797        7.8123786E-19
   23.77476        7.8089613E-19
   23.90155        7.8053424E-19
   24.02835        7.8015560E-19
   24.15514        7.7976228E-19
   24.28193        7.7935520E-19
   24.40872        7.7893432E-19
   24.53552        7.7849798E-19
   24.66231        7.7804334E-19
   24.78910        7.7756601E-19
   24.91590        7.7706262E-19
   25.04269        7.7652924E-19
   25.16948        7.7596236E-19
   25.29627        7.7536100E-19
   25.42307        7.7472557E-19
   25.54986        7.7405628E-19
   25.67665        7.7335509E-19
   25.80344        7.7262588E-19
   25.93024        7.7187165E-19
   26.05703        7.7109549E-19
   26.18382        7.7030119E-19
   26.31061        7.6948973E-19
   26.43741        7.6866275E-19
   26.56420        7.6781996E-19
   26.69099        7.6695887E-19
   26.81779        7.6607761E-19
   26.94458        7.6517293E-19
   27.07137        7.6424034E-19
   27.19816        7.6327739E-19
   27.32495        7.6228075E-19
   27.45175        7.6124889E-19
   27.57854        7.6018146E-19
   27.70533        7.5907992E-19
   27.83213        7.5794756E-19
   27.95892        7.5678801E-19
   28.08571        7.5560731E-19
   28.21250        7.5441172E-19
   28.33930        7.5320678E-19
   28.46609        7.5199811E-19
   28.59288        7.5079043E-19
   28.71968        7.4958569E-19
   28.84647        7.4838577E-19
   28.97326        7.4718971E-19
   29.10005        7.4599527E-19
   29.22684        7.4479999E-19
   29.35364        7.4360115E-19
   29.48043        7.4239522E-19
   29.60722        7.4117989E-19
   29.73402        7.3995354E-19
   29.86081        7.3871644E-19
   29.98760        7.3747003E-19
   30.11439        7.3621608E-19
   30.24119        7.3495804E-19
   30.36798        7.3369902E-19
   30.49477        7.3244124E-19
   30.62156        7.3118796E-19
   30.74836        7.2993886E-19
   30.87515        7.2869458E-19
   31.00194        7.2745246E-19
   31.12873        7.2621029E-19
   31.25553        7.2496425E-19
   31.38232        7.2370993E-19
   31.50911        7.2244368E-19
   31.63591        7.2116232E-19
   31.76270        7.1986380E-19
   31.88949        7.1854626E-19
   32.01628        7.1720974E-19
   32.14308        7.1585529E-19
   32.26987        7.1448470E-19
   32.39666        7.1310243E-19
   32.52345        7.1171096E-19
   32.65025        7.1031354E-19
   32.77704        7.0891286E-19
   32.90383        7.0751110E-19
   33.03062        7.0610960E-19
   33.15742        7.0470944E-19
   33.28421        7.0330964E-19
   33.41100        7.0191057E-19
   33.53780        7.0051093E-19
   33.66459        6.9910912E-19
   33.79138        6.9770534E-19
   33.91817        6.9629996E-19
   34.04497        6.9489468E-19
   34.17176        6.9349266E-19
   34.29855        6.9209783E-19
   34.42534        6.9071654E-19
   34.55214        6.8935418E-19
   34.67893        6.8801750E-19
   34.80572        6.8671216E-19
   34.93251        6.8544352E-19
   35.05931        6.8421418E-19
   35.18610        6.8302480E-19
   35.31289        6.8187331E-19
   35.43969        6.8075677E-19
   35.56648        6.7966975E-19
   35.69327        6.7860672E-19
   35.82006        6.7756101E-19
   35.94686        6.7652771E-19
   36.07365        6.7550195E-19
   36.20044        6.7448043E-19
   36.32723        6.7346202E-19
   36.45403        6.7244728E-19
   36.58082        6.7143868E-19
   36.70761        6.7043816E-19
   36.83440        6.6945035E-19
   36.96120        6.6847800E-19
   37.08799        6.6752462E-19
   37.21478        6.6659213E-19
   37.34158        6.6568166E-19
   37.46837        6.6479384E-19
   37.59516        6.6392825E-19
   37.72195        6.6308364E-19
   37.84875        6.6225884E-19
   37.97554        6.6145229E-19
   38.10233        6.6066305E-19
   38.22912        6.5989016E-19
   38.35592        6.5913256E-19
   38.48271        6.5839017E-19
   38.60950        6.5766220E-19
   38.73629        6.5694845E-19
   38.86309        6.5624855E-19
   38.98988        6.5556287E-19
   39.11667        6.5489161E-19
   39.24347        6.5423519E-19
   39.37026        6.5359345E-19
   39.49705        6.5296733E-19
   39.62384        6.5235589E-19
   39.75064        6.5175897E-19
   39.87743        6.5117529E-19
   40.00422        6.5060257E-19
   40.13101        6.5003854E-19
   40.25780        6.4948030E-19
   40.38460        6.4892391E-19
   40.51139        6.4836696E-19
   40.63818        6.4780639E-19
   40.76498        6.4724039E-19
   40.89177        6.4666737E-19
   41.01856        6.4608643E-19
   41.14536        6.4549820E-19
   41.27215        6.4490464E-19
   41.39894        6.4430856E-19
   41.52573        6.4371293E-19
   41.65253        6.4312228E-19
   41.77932        6.4253880E-19
   41.90611        6.4196490E-19
   42.03290        6.4140283E-19
   42.15969        6.4085265E-19
   42.28649        6.4031472E-19
   42.41328        6.3978832E-19
   42.54007        6.3927191E-19
   42.66687        6.3876484E-19
   42.79366        6.3826600E-19
   42.92045        6.3777590E-19
   43.04725        6.3729463E-19
   43.17404        6.3682335E-19
   43.30083        6.3636473E-19
   43.42762        6.3591976E-19
   43.55442        6.3549009E-19
   43.68121        6.3507717E-19
   43.80800        6.3468079E-19
   43.93479        6.3430091E-19
   44.06158        6.3393509E-19
   44.18838        6.3358101E-19
   44.31517        6.3323473E-19
   44.44196        6.3289202E-19
   44.56876        6.3254781E-19
   44.69555        6.3219806E-19
   44.82234        6.3183829E-19
   44.94913        6.3146482E-19
   45.07593        6.3107542E-19
   45.20272        6.3066799E-19
   45.32951        6.3024142E-19
   45.45631        6.2979572E-19
   45.58310        6.2933111E-19
   45.70989        6.2884788E-19
   45.83668        6.2834697E-19
   45.96347        6.2783024E-19
   46.09027        6.2729898E-19
   46.21706        6.2675522E-19
   46.34385        6.2619997E-19
   46.47065        6.2563568E-19
   46.59744        6.2506224E-19
   46.72423        6.2448124E-19
   46.85102        6.2389250E-19
   46.97782        6.2329538E-19
   47.10461        6.2268942E-19
   47.23140        6.2207529E-19
   47.35820        6.2145294E-19
   47.48499        6.2082361E-19
   47.61178        6.2018973E-19
   47.73857        6.1955368E-19
   47.86536        6.1891809E-19
   47.99216        6.1828819E-19
   48.11895        6.1766771E-19
   48.24574        6.1706118E-19
   48.37254        6.1647284E-19
   48.49933        6.1590669E-19
   48.62612        6.1536385E-19
   48.75291        6.1484537E-19
   48.87971        6.1434875E-19
   49.00650        6.1387183E-19
   49.13329        6.1340943E-19
   49.26009        6.1295536E-19
   49.38688        6.1250357E-19
   49.51367        6.1204743E-19
   49.64046        6.1158193E-19
   49.76725        6.1110227E-19
   49.89405        6.1060658E-19
   50.02084        6.1009347E-19
   50.14763        6.0956377E-19
   50.27443        6.0901953E-19
   50.40122        6.0846387E-19
   50.52801        6.0789979E-19
   50.65480        6.0733105E-19
   50.78160        6.0675962E-19
   50.90839        6.0618727E-19
   51.03518        6.0561403E-19
   51.16198        6.0503883E-19
   51.28877        6.0446022E-19
   51.41556        6.0387602E-19
   51.54235        6.0328422E-19
   51.66914        6.0268379E-19
   51.79594        6.0207396E-19
   51.92273        6.0145709E-19
   52.04952        6.0083665E-19
   52.17632        6.0021807E-19
   52.30311        5.9960673E-19
   52.42990        5.9901018E-19
   52.55669        5.9843390E-19
   52.68349        5.9788258E-19
   52.81028        5.9735872E-19
   52.93707        5.9686251E-19
   53.06387        5.9639200E-19
   53.19066        5.9594150E-19
   53.31745        5.9550366E-19
   53.44424        5.9506944E-19
   53.57103        5.9462876E-19
   53.69783        5.9417143E-19
   53.82462        5.9368764E-19
   53.95141        5.9316817E-19
   54.07821        5.9260599E-19
   54.20500        5.9199569E-19
   54.33179        5.9133462E-19
   54.45858        5.9062257E-19
   54.58538        5.8986146E-19
   54.71217        5.8905574E-19
   54.83896        5.8821201E-19
   54.96576        5.8734135E-19
   55.09255        5.8645637E-19
   55.21934        5.8557263E-19
   55.34613        5.8471143E-19
   55.47292        5.8389573E-19
   55.59972        5.8315282E-19
   55.72651        5.8251248E-19
   55.85330        5.8200536E-19
   55.98009        5.8166265E-19
   56.10689        5.8151319E-19
   56.23368        5.8158195E-19
   56.36047        5.8188641E-19
   56.48727        5.8243436E-19
   56.61406        5.8322261E-19
   56.74085        5.8423255E-19
   56.86765        5.8542834E-19
   56.99444        5.8675700E-19
   57.12123        5.8814682E-19
   57.24802        5.8950856E-19
   57.37481        5.9073476E-19
   57.50161        5.9170556E-19
   57.62840        5.9229110E-19
   57.75519        5.9235794E-19
   57.88198        5.9177613E-19
   58.00878        5.9042679E-19
   58.13557        5.8821010E-19
   58.26236        5.8505461E-19
   58.38916        5.8092900E-19
   58.51595        5.7584721E-19
   58.64274        5.6987843E-19
   58.76954        5.6315309E-19
   58.89633        5.5586672E-19
   59.02312        5.4828044E-19
   59.14991        5.4071763E-19
   59.27670        5.3355776E-19
   59.40350        5.2722610E-19
   59.53029        5.2217560E-19
   59.65708        5.1887039E-19
   59.78387        5.1776031E-19
   59.91067        5.1925586E-19
   60.03746        5.2369942E-19
   60.16425        5.3133693E-19
   60.29105        5.4228731E-19
   60.41784        5.5651771E-19
   60.54463        5.7381840E-19
   60.67142        5.9378602E-19
   60.79822        6.1581399E-19
   60.92501        6.3908853E-19
   61.05180        6.6259933E-19
   61.17859        6.8516058E-19
   61.30539        7.0544201E-19
   61.43218        7.2201561E-19
   61.55897        7.3341266E-19
   61.68576        7.3819588E-19
   61.81256        7.3503481E-19
   61.93935        7.2279435E-19
   62.06614        7.0062188E-19
   62.19294        6.6803701E-19
   62.31973        6.2501297E-19
   62.44652        5.7205107E-19
   62.57331        5.1023225E-19
   62.70011        4.4125335E-19
   62.82690        3.6743285E-19
   62.95369        2.9168723E-19
   63.08048        2.1746987E-19
   63.20728        1.4867646E-19
   63.33407        8.9513020E-20
   63.46086        4.4326441E-20
   63.58765        1.7406659E-20
   63.71445        1.2760603E-20
   63.84124        3.3868070E-20
   63.96803        8.3431556E-20
   64.09483        1.6312915E-19
   64.22162        2.7338288E-19
   64.34841        4.1316232E-19
   64.47520        5.7982988E-19
   64.60200        7.6904900E-19
   64.72879        9.7476525E-19
   64.85558        1.1892698E-18
   64.98238        1.4033559E-18
   65.10917        1.6065717E-18
   65.23596        1.7875700E-18
   65.36275        1.9345486E-18
   65.48955        2.0357728E-18
   65.61633        2.0801669E-18
   65.74313        2.0579443E-18
   65.86992        1.9612624E-18
   65.99671        1.7848630E-18
   66.12350        1.5266685E-18
   66.25030        1.1882988E-18
   66.37709        7.7546528E-19
   66.50388        2.9822113E-19
   66.63068       -2.2898102E-19
   66.75747       -7.8743500E-19
   66.88426       -1.3545619E-18
   67.01105       -1.9045242E-18
   67.13785       -2.4090825E-18
   67.26464       -2.8386767E-18
   67.39143       -3.1637007E-18
   67.51823       -3.3559431E-18
   67.64502       -3.3901290E-18
   67.77181       -3.2455060E-18
   67.89861       -2.9073999E-18
   68.02540       -2.3686542E-18
   68.15219       -1.6308759E-18
   68.27898       -7.0539383E-19
   68.40578        3.8614613E-19
   68.53257        1.6116214E-18
   68.65936        2.9287717E-18
   68.78616        4.2860690E-18
   68.91295        5.6241495E-18
   69.03974        6.8777892E-18
   69.16653        7.9783928E-18
   69.29333        8.8569280E-18
   69.42011        9.4472223E-18
   69.54691        9.6894820E-18
   69.67370        9.5338927E-18
   69.80049        8.9441427E-18
   69.92728        7.9006676E-18
   70.05408        6.4034380E-18
   70.18087        4.4741062E-18
   70.30766        2.1573139E-18
   70.43446       -4.7897257E-19
   70.56125       -3.3442261E-18
   70.68804       -6.3273138E-18
   70.81483       -9.2996699E-18
   70.94163       -1.2119658E-17
   71.06842       -1.4638036E-17
   71.19521       -1.6704381E-17
   71.32201       -1.8174248E-17
   71.44880       -1.8916795E-17
   71.57559       -1.8822538E-17
   71.70238       -1.7810903E-17
   71.82918       -1.5837114E-17
   71.95597       -1.2898092E-17
   72.08276       -9.0368969E-18
   72.20956       -4.3453952E-18
   72.33635        1.0351842E-18
   72.46314        6.9160575E-18
   72.58994        1.3065194E-17
   72.71673        1.9214175E-17
   72.84352        2.5067541E-17
   72.97031        3.0314399E-17
   73.09711        3.4641980E-17
   73.22389        3.7750654E-17
   73.35069        3.9369810E-17
   73.47748        3.9273947E-17
   73.60427        3.7298183E-17
   73.73106        3.3352339E-17
   73.85786        2.7432859E-17
   73.98465        1.9631621E-17
   74.11144        1.0141040E-17
   74.23824       -7.4522102E-19
   74.36503       -1.2636403E-17
   74.49182       -2.5053936E-17
   74.61861       -3.7445887E-17
   74.74541       -4.9206450E-17
   74.87220       -5.9699914E-17
   74.99899       -6.8288498E-17
   75.12579       -7.4363008E-17
   75.25258       -7.7375097E-17
   75.37937       -7.6869828E-17
   75.50616       -7.2516833E-17
   75.63296       -6.4138585E-17
   75.75975       -5.1734066E-17
   75.88654       -3.5496242E-17
   76.01334       -1.5821876E-17
   76.14013        6.6873781E-18
   76.26692        3.1233582E-17
   76.39371        5.6841410E-17
   76.52051        8.2387242E-17
   76.64730        1.0663815E-16
   76.77409        1.2829978E-16
   76.90089        1.4607171E-16
   77.02767        1.5870842E-16
   77.15446        1.6508337E-16
   77.28126        1.6425361E-16
   77.40805        1.5552175E-16
   77.53484        1.3849224E-16
   77.66164        1.1311887E-16
   77.78843        7.9740204E-17
   77.91522        3.9100563E-17
   78.04202       -7.6462574E-18
   78.16881       -5.8951581E-17
   78.29560       -1.1290632E-16
   78.42239       -1.6729515E-16
   78.54919       -2.1966968E-16
   78.67598       -2.6743906E-16
   78.80277       -3.0797499E-16
   78.92957       -3.3872811E-16
   79.05636       -3.5735084E-16
   79.18315       -3.6182198E-16
   79.30994       -3.5056732E-16
   79.43674       -3.2257050E-16
   79.56353       -2.7746814E-16
   79.69032       -2.1562382E-16
   79.81712       -1.3817536E-16
   79.94391       -4.7051664E-17
   80.07070        5.5044810E-17
   80.19749        1.6469140E-16
   80.32429        2.7783514E-16
   80.45108        3.8991822E-16
   80.57787        4.9603605E-16
   80.70466        5.9112312E-16
   80.83145        6.7016146E-16
   80.95824        7.2840302E-16
   81.08504        7.6159750E-16
   81.21183        7.6621663E-16
   81.33862        7.3966337E-16
   81.46542        6.8045635E-16
   81.59221        5.8838000E-16
   81.71900        4.6459000E-16
   81.84579        3.1166659E-16
   81.97259        1.3361006E-16
   82.09938       -6.4225823E-17
   82.22617       -2.7526427E-16
   82.35297       -4.9189824E-16
   82.47976       -7.0574182E-16
   82.60655       -9.0793197E-16
   82.73335       -1.0894727E-15
   82.86014       -1.2416070E-15
   82.98693       -1.3562055E-15
   83.11372       -1.4261513E-15
   83.24052       -1.4457075E-15
   83.36731       -1.4108489E-15
   83.49410       -1.3195394E-15
   83.62090       -1.1719427E-15
   83.74769       -9.7054846E-16
   83.87448       -7.2020602E-16
   84.00127       -4.2805837E-16
   84.12807       -1.0337058E-16
   84.25486        2.4274381E-16
   84.38165        5.9769435E-16
   84.50844        9.4787095E-16
   84.63523        1.2791733E-15
   84.76202        1.5775924E-15
   84.88882        1.8298211E-15
   85.01561        2.0238683E-15
   85.14240        2.1496496E-15
   85.26920        2.1995241E-15
   85.39599        2.1687546E-15
   85.52278        2.0558589E-15
   85.64957        1.8628355E-15
   85.77637        1.5952420E-15
   85.90316        1.2621134E-15
   86.02995        8.7571809E-16
   86.15675        4.5114865E-16
   86.28354        5.7563069E-18
   86.41033       -4.4155073E-16
   86.53712       -8.7112712E-16
   86.66392       -1.2634898E-15
   86.79071       -1.6002672E-15
   86.91750       -1.8651509E-15
   87.04430       -2.0448083E-15
   87.17109       -2.1297089E-15
   87.29788       -2.1148160E-15
   87.42467       -2.0001076E-15
   87.55147       -1.7908809E-15
   87.67826       -1.4978143E-15
   87.80505       -1.1367655E-15
   87.93185       -7.2829386E-16
   88.05864       -2.9690956E-16
   88.18543        1.2993933E-16
   88.31222        5.2310928E-16
   88.43901        8.5319622E-16
   88.56580        1.0921055E-15
   88.69260        1.2146989E-15
   88.81939        1.2004391E-15
   88.94618        1.0349593E-15
   89.07298        7.1146612E-16
   89.19977        2.3190338E-16
   89.32656       -3.9220868E-16
   89.45335       -1.1393253E-15
   89.58015       -1.9778808E-15
   89.70694       -2.8667938E-15
   89.83373       -3.7564768E-15
   89.96053       -4.5903904E-15
   90.08732       -5.3070849E-15
   90.21411       -5.8427130E-15
   90.34090       -6.1339301E-15
   90.46770       -6.1210891E-15
   90.59449       -5.7516265E-15
   90.72128       -4.9834929E-15
   90.84808       -3.7884815E-15
   90.97487       -2.1552988E-15
   91.10166       -9.2211838E-17
   91.22845        2.3708878E-15
   91.35525        5.1811582E-15
   91.48204        8.2623498E-15
   91.60883        1.1515329E-14
   91.73563        1.4819656E-14
   91.86242        1.8036272E-14
   91.98921        2.1011286E-14
   92.11600        2.3580811E-14
   92.24279        2.5576771E-14
   92.36958        2.6833511E-14
   92.49638        2.7195041E-14
   92.62317        2.6522668E-14
   92.74996        2.4702737E-14
   92.87675        2.1654187E-14
   93.00355        1.7335585E-14
   93.13034        1.1751309E-14
   93.25713        4.9565378E-15
   93.38393       -2.9392560E-15
   93.51072       -1.1770617E-14
   93.63751       -2.1316450E-14
   93.76431       -3.1302584E-14
   93.89110       -4.1406701E-14
   94.01789       -5.1265598E-14
   94.14468       -6.0484780E-14
   94.27148       -6.8650218E-14
   94.39827       -7.5342009E-14
   94.52506       -8.0149646E-14
   94.65186       -8.2688352E-14
   94.77865       -8.2616050E-14
   94.90544       -7.9650384E-14
   95.03223       -7.3585052E-14
   95.15903       -6.4304885E-14
   95.28582       -5.1798914E-14
   95.41261       -3.6170821E-14
   95.53941       -1.7646053E-14
   95.66620        3.4248418E-15
   95.79299        2.6567202E-14
   95.91978        5.1187848E-14
   96.04657        7.6585473E-14
   96.17336        1.0196590E-13
   96.30016        1.2646201E-13
   96.42695        1.4915800E-13
   96.55374        1.6911746E-13
   96.68053        1.8541454E-13
   96.80733        1.9716737E-13
   96.93412        2.0357259E-13
   97.06091        2.0394000E-13
   97.18771        1.9772586E-13
   97.31450        1.8456382E-13
   97.44129        1.6429187E-13
   97.56808        1.3697433E-13
   97.69488        1.0291753E-13
   97.82167        6.2678148E-14
   97.94846        1.7063580E-14
   98.07526       -3.2876527E-14
   98.20205       -8.5867816E-14
   98.32884       -1.4043768E-13
   98.45564       -1.9495069E-13
   98.58243       -2.4765194E-13
   98.70922       -2.9671773E-13
   98.83601       -3.4031198E-13
   98.96281       -3.7664696E-13
   99.08960       -4.0404637E-13
   99.21639       -4.2100880E-13
   99.34319       -4.2626940E-13
   99.46998       -4.1885720E-13
   99.59677       -3.9814633E-13
   99.72356       -3.6389845E-13
   99.85035       -3.1629460E-13
   99.97714       -2.5595495E-13
   100.1039       -1.8394462E-13
   100.2307       -1.0176484E-13
   100.3575       -1.1329006E-14
   100.4843        8.5076728E-14
   100.6111        1.8484735E-13
   100.7379        2.8512669E-13
   100.8647        3.8288697E-13
   100.9915        4.7501841E-13
   101.1183        5.5842592E-13
   101.2451        6.3012995E-13
   101.3719        6.8736878E-13
   101.4987        7.2769763E-13
   101.6255        7.4908244E-13
   101.7522        7.4998325E-13
   101.8790        7.2942547E-13
   102.0058        6.8705474E-13
   102.1326        6.2317333E-13
   102.2594        5.3875627E-13
   102.3862        4.3544557E-13
   102.5130        3.1552170E-13
   102.6398        1.8185305E-13
   102.7666        3.7823945E-14
   102.8934       -1.1275714E-13
   103.0202       -2.6576614E-13
   103.1470       -4.1688587E-13
   103.2738       -5.6173832E-13
   103.4006       -6.9602261E-13
   103.5273       -8.1565364E-13
   103.6541       -9.1689698E-13
   103.7809       -9.9649423E-13
   103.9077       -1.0517757E-12
   104.0345       -1.0807543E-12
   104.1613       -1.0821980E-12
   104.2881       -1.0556783E-12
   104.4149       -1.0015901E-12
   104.5417       -9.2114554E-13
   104.6685       -8.1633761E-13
   104.7953       -6.8987779E-13
   104.9221       -5.4510736E-13
   105.0489       -3.8588672E-13
   105.1756       -2.1646603E-13
   105.3024       -4.1342408E-14
   105.4292        1.3489147E-13
   105.5560        3.0770110E-13
   105.6828        4.7276050E-13
   105.8096        6.2609320E-13
   105.9364        7.6419768E-13
   106.0632        8.8415305E-13
   106.1900        9.8369999E-13
   106.3168        1.0612937E-12
   106.4436        1.1161262E-12
   106.5704        1.1481181E-12
   106.6972        1.1578791E-12
   106.8240        1.1466402E-12
   106.9507        1.1161584E-12
   107.0775        1.0686021E-12
   107.2043        1.0064187E-12
   107.3311        9.3219226E-13
   107.4579        8.4849982E-13
   107.5847        7.5777026E-13
   107.7115        6.6215582E-13
   107.8383        5.6342133E-13
   107.9651        4.6285827E-13
   108.0919        3.6122863E-13
   108.2187        2.5874273E-13
   108.3455        1.5507237E-13
   108.4723        4.9402001E-14
   108.5990       -5.9485498E-14
   108.7258       -1.7308938E-13
   108.8526       -2.9304380E-13
   108.9794       -4.2094919E-13
   109.1062       -5.5818880E-13
   109.2330       -7.0574167E-13
   109.3598       -8.6399963E-13
   109.4866       -1.0325997E-12
   109.6134       -1.2102818E-12
   109.7402       -1.3947803E-12
   109.8670       -1.5827610E-12
   109.9938       -1.7698048E-12
   110.1206       -1.9504487E-12
   110.2474       -2.1182860E-12
   110.3741       -2.2661205E-12
   110.5009       -2.3861817E-12
   110.6277       -2.4703867E-12