  -4.500000        8.9338001E-20
  -4.373208        8.9310025E-20
  -4.246415        8.9255690E-20
  -4.119622        8.9180184E-20
  -3.992829        8.9063480E-20
  -3.866037        8.8898638E-20
  -3.739244        8.9532989E-20
  -3.612452        9.5246015E-20
  -3.485659        1.1634506E-19
  -3.358866        1.6467214E-19
  -3.232074        2.3440282E-19
  -3.105281        2.7497314E-19
  -2.978488        1.8836037E-19
  -2.851696       -1.0960117E-19
  -2.724903       -5.6956069E-19
  -2.598110       -9.2988325E-19
  -2.471318       -8.4503608E-19
  -2.344525       -3.2050809E-19
  -2.217732       -3.1504076E-19
  -2.090940       -3.0814883E-18
  -1.964147       -1.1725679E-17
  -1.837354       -2.8769008E-17
  -1.710562       -5.4152510E-17
  -1.583769       -8.3754029E-17
  -1.456976       -1.0963259E-16
  -1.330184       -1.2261742E-16
  -1.203391       -1.1673227E-16
  -1.076598       -9.3846301E-17
 -0.9498057       -6.6415661E-17
 -0.8230131       -5.6396036E-17
 -0.6962205       -8.9177197E-17
 -0.5694278       -1.8250430E-16
 -0.4426351       -3.3193530E-16
 -0.3158425       -4.9682072E-16
 -0.1890498       -5.9395978E-16
 -6.2257171E-02   -5.0858817E-16
  6.4535484E-02   -1.3135419E-16
  0.1913281        5.7741998E-16
  0.3181208        1.5091491E-15
  0.4449134        2.3442369E-15
  0.5717061        2.5470204E-15
  0.6984987        1.4566058E-15
  0.8252914       -1.5131244E-15
  0.9520841       -6.5936755E-15
   1.078877       -1.3378298E-14
   1.205669       -2.0640146E-14
   1.332462       -2.6352044E-14
   1.459255       -2.7959712E-14
   1.586047       -2.2880516E-14
   1.712840       -9.1152637E-15
   1.839633        1.4196893E-14
   1.966425        4.6455285E-14
   2.093218        8.5628018E-14
   2.220011        1.2866428E-13
   2.346803        1.7221681E-13
   2.473596        2.1353440E-13
   2.600389        2.5136927E-13
   2.727181        2.8678267E-13
   2.853974        3.2379598E-13
   2.980767        3.6988457E-13
   3.107559        4.3631548E-13
   3.234352        5.3827575E-13
   3.361145        6.9465305E-13
   3.487937        9.2725816E-13
   3.614730        1.2592792E-12
   3.741522        1.7128595E-12
   3.868315        2.3058912E-12
   3.995108        3.0483899E-12
   4.121901        3.9390696E-12
   4.248693        4.9629328E-12
   4.375485        6.0907477E-12
   4.502278        7.2811930E-12
   4.629071        8.4861432E-12
   4.755864        9.6591398E-12
   4.882656        1.0766468E-11
   5.009449        1.1799514E-11
   5.136241        1.2786420E-11
   5.263034        1.3800410E-11
   5.389827        1.4962023E-11
   5.516620        1.6432793E-11
   5.643412        1.8398999E-11
   5.770205        2.1045847E-11
   5.896997        2.4524705E-11
   6.023790        2.8918243E-11
   6.150583        3.4210169E-11
   6.277375        4.0266589E-11
   6.404168        4.6834848E-11
   6.530961        5.3562467E-11
   6.657753        6.0033756E-11
   6.784546        6.5816137E-11
   6.911339        7.0502715E-11
   7.038131        7.3734616E-11
   7.164924        7.5186836E-11
   7.291717        7.4506165E-11
   7.418509        7.1198679E-11
   7.545302        6.4477229E-11
   7.672095        5.3092343E-11
   7.798887        3.5182121E-11
   7.925680        8.1822847E-12
   8.052472       -3.1163731E-11
   8.179265       -8.6666743E-11
   8.306058       -1.6241886E-10
   8.432851       -2.6240612E-10
   8.559643       -3.9005699E-10
   8.686436       -5.4780175E-10
   8.813229       -7.3673140E-10
   8.940022       -9.5644048E-10
   9.066813       -1.2051117E-09
   9.193606       -1.4798575E-09
   9.320399       -1.7772671E-09
   9.447192       -2.0940476E-09
   9.573984       -2.4275777E-09
   9.700777       -2.7761655E-09
   9.827570       -3.1387850E-09
   9.954362       -3.5141108E-09
   10.08115       -3.8987436E-09
   10.20795       -4.2846300E-09
   10.33474       -4.6558317E-09
   10.46153       -4.9849014E-09
   10.58833       -5.2292681E-09
   10.71512       -5.3280935E-09
   10.84191       -5.2000777E-09
   10.96870       -4.7426418E-09
   11.09550       -3.8328483E-09
   11.22229       -2.3302535E-09
   11.34908       -8.1751973E-11
   11.47587        3.0716742E-09
   11.60267        7.2865531E-09
   11.72946        1.2707189E-08
   11.85625        1.9455040E-08
   11.98304        2.7617727E-08
   12.10984        3.7238294E-08
   12.23663        4.8305463E-08
   12.36342        6.0745933E-08
   12.49022        7.4419852E-08
   12.61701        8.9121158E-08
   12.74380        1.0458477E-07
   12.87059        1.2050265E-07
   12.99739        1.3655153E-07
   13.12418        1.5243492E-07
   13.25097        1.6794162E-07
   13.37776        1.8302335E-07
   13.50456        1.9789287E-07
   13.63135        2.1314355E-07
   13.75814        2.2988962E-07
   13.88493        2.4992642E-07
   14.01173        2.7590758E-07
   14.13852        3.1153465E-07
   14.26531        3.6175555E-07
   14.39211        4.3296376E-07
   14.51890        5.3319189E-07
   14.64569        6.7229286E-07
   14.77248        8.6209866E-07
   14.89928        1.1165498E-06
   15.02607        1.4517856E-06
   15.15286        1.8861888E-06
   15.27965        2.4403746E-06
   15.40645        3.1371214E-06
   15.53324        4.0012328E-06
   15.66003        5.0593276E-06
   15.78682        6.3395569E-06
   15.91362        7.8712428E-06
   16.04041        9.6844533E-06
   16.16720        1.1809489E-05
   16.29399        1.4276331E-05
   16.42079        1.7113996E-05
   16.54758        2.0349884E-05
   16.67437        2.4009078E-05
   16.80116        2.8113627E-05
   16.92796        3.2681863E-05
   17.05475        3.7727703E-05
   17.18154        4.3260050E-05
   17.30834        4.9282247E-05
   17.43513        5.5791650E-05
   17.56192        6.2779327E-05
   17.68871        7.0229893E-05
   17.81551        7.8121528E-05
   17.94230        8.6426211E-05
   18.06909        9.5110059E-05
   18.19588        1.0413396E-04
   18.32268        1.1345429E-04
   18.44947        1.2302393E-04
   18.57626        1.3279323E-04
   18.70305        1.4271133E-04
   18.82985        1.5272733E-04
   18.95664        1.6279162E-04
   19.08343        1.7285721E-04
   19.21023        1.8288095E-04
   19.33702        1.9282461E-04
   19.46381        2.0265584E-04
   19.59060        2.1234897E-04
   19.71740        2.2188555E-04
   19.84419        2.3125457E-04
   19.97098        2.4045247E-04
   20.09777        2.4948298E-04
   20.22457        2.5835636E-04
   20.35136        2.6708879E-04
   20.47815        2.7570123E-04
   20.60494        2.8421823E-04
   20.73174        2.9266672E-04
   20.85853        3.0107438E-04
   20.98532        3.0946848E-04
   21.11212        3.1787425E-04
   21.23891        3.2631392E-04
   21.36570        3.3480561E-04
   21.49249        3.4336228E-04
   21.61929        3.5199156E-04
   21.74608        3.6069524E-04
   21.87287        3.6946940E-04
   21.99966        3.7830480E-04
   22.12646        3.8718747E-04
   22.25325        3.9609952E-04
   22.38004        4.0502031E-04
   22.50683        4.1392748E-04
   22.63363        4.2279836E-04
   22.76042        4.3161097E-04
   22.88721        4.4034544E-04
   23.01401        4.4898482E-04
   23.14080        4.5751611E-04
   23.26759        4.6593085E-04
   23.39438        4.7422564E-04
   23.52118        4.8240233E-04
   23.64797        4.9046805E-04
   23.77476        4.9843517E-04
   23.90155        5.0632062E-04
   24.02835        5.1414588E-04
   24.15514        5.2193616E-04
   24.28193        5.2971975E-04
   24.40872        5.3752761E-04
   24.53552        5.4539257E-04
   24.66231        5.5334874E-04
   24.78910        5.6143117E-04
   24.91590        5.6967500E-04
   25.04269        5.7811529E-04
   25.16948        5.8678642E-04
   25.29627        5.9572188E-04
   25.42307        6.0495333E-04
   25.54986        6.1451044E-04
   25.67665        6.2442024E-04
   25.80344        6.3470623E-04
   25.93024        6.4538768E-04
   26.05703        6.5647840E-04
   26.18382        6.6798565E-04
   26.31061        6.7990896E-04
   26.43741        6.9223845E-04
   26.56420        7.0495327E-04
   26.69099        7.1802031E-04
   26.81779        7.3139218E-04
   26.94458        7.4500608E-04
   27.07137        7.5878209E-04
   27.19816        7.7262201E-04
   27.32495        7.8640884E-04
   27.45175        8.0000580E-04
   27.57854        8.1325625E-04
   27.70533        8.2598446E-04
   27.83213        8.3799579E-04
   27.95892        8.4907858E-04
   28.08571        8.5900567E-04
   28.21250        8.6753711E-04
   28.33930        8.7442261E-04
   28.46609        8.7940495E-04
   28.59288        8.8222366E-04
   28.71968        8.8261842E-04
   28.84647        8.8033354E-04
   28.97326        8.7512168E-04
   29.10005        8.6674775E-04
   29.22684        8.5499306E-04
   29.35364        8.3965861E-04
   29.48043        8.2056905E-04
   29.60722        7.9757511E-04
   29.73402        7.7055668E-04
   29.86081        7.3942455E-04
   29.98760        7.0412265E-04
   30.11439        6.6462933E-04
   30.24119        6.2095781E-04
   30.36798        5.7315704E-04
   30.49477        5.2131154E-04
   30.62156        4.6554129E-04
   30.74836        4.0600082E-04
   30.87515        3.4287831E-04
   31.00194        2.7639457E-04
   31.12873        2.0680120E-04
   31.25553        1.3437922E-04
   31.38232        5.9437072E-05
   31.50911       -1.7691480E-05
   31.63591       -9.6649273E-05
   31.76270       -1.7705823E-04
   31.88949       -2.5852173E-04
   32.01628       -3.4062710E-04
   32.14308       -4.2294827E-04
   32.26987       -5.0504861E-04
   32.39666       -5.8648398E-04
   32.52345       -6.6680531E-04
   32.65025       -7.4556225E-04
   32.77704       -8.2230632E-04
   32.90383       -8.9659443E-04
   33.03062       -9.6799241E-04
   33.15742       -1.0360786E-03
   33.28421       -1.1004476E-03
   33.41100       -1.1607144E-03
   33.53780       -1.2165176E-03
   33.66459       -1.2675234E-03
   33.79138       -1.3134292E-03
   33.91817       -1.3539669E-03
   34.04497       -1.3889058E-03
   34.17176       -1.4180557E-03
   34.29855       -1.4412693E-03
   34.42534       -1.4584437E-03
   34.55214       -1.4695221E-03
   34.67893       -1.4744947E-03
   34.80572       -1.4733986E-03
   34.93251       -1.4663183E-03
   35.05931       -1.4533834E-03
   35.18610       -1.4347680E-03
   35.31289       -1.4106882E-03
   35.43969       -1.3813989E-03
   35.56648       -1.3471913E-03
   35.69327       -1.3083882E-03
   35.82006       -1.2653405E-03
   35.94686       -1.2184223E-03
   36.07365       -1.1680265E-03
   36.20044       -1.1145591E-03
   36.32723       -1.0584356E-03
   36.45403       -1.0000749E-03
   36.58082       -9.3989528E-04
   36.70761       -8.7830960E-04
   36.83440       -8.1572105E-04
   36.96120       -7.5251976E-04
   37.08799       -6.8907888E-04
   37.21478       -6.2575203E-04
   37.34158       -5.6287076E-04
   37.46837       -5.0074316E-04
   37.59516       -4.3965215E-04
   37.72195       -3.7985528E-04
   37.84875       -3.2158432E-04
   37.97554       -2.6504564E-04
   38.10233       -2.1042106E-04
   38.22912       -1.5786894E-04
   38.35592       -1.0752569E-04
   38.48271       -5.9507242E-05
   38.60950       -1.3910732E-05
   38.73629        2.9183760E-05
   38.86309        6.9711568E-05
   38.98988        1.0762212E-04
   39.11667        1.4287760E-04
   39.24347        1.7545209E-04
   39.37026        2.0533083E-04
   39.49705        2.3250989E-04
   39.62384        2.5699611E-04
   39.75064        2.7880739E-04
   39.87743        2.9797299E-04
   40.00422        3.1453435E-04
   40.13101        3.2854560E-04
   40.25780        3.4007450E-04
   40.38460        3.4920286E-04
   40.51139        3.5602716E-04
   40.63818        3.6065863E-04
   40.76498        3.6322305E-04
   40.89177        3.6386025E-04
   41.01856        3.6272290E-04
   41.14536        3.5997498E-04
   41.27215        3.5578961E-04
   41.39894        3.5034656E-04
   41.52573        3.4382910E-04
   41.65253        3.3642072E-04
   41.77932        3.2830134E-04
   41.90611        3.1964362E-04
   42.03290        3.1060915E-04
   42.15969        3.0134473E-04
   42.28649        2.9197914E-04
   42.41328        2.8262020E-04
   42.54007        2.7335234E-04
   42.66687        2.6423519E-04
   42.79366        2.5530276E-04
   42.92045        2.4656337E-04
   43.04725        2.3800094E-04
   43.17404        2.2957665E-04
   43.30083        2.2123189E-04
   43.42762        2.1289183E-04
   43.55442        2.0446966E-04
   43.68121        1.9587154E-04
   43.80800        1.8700176E-04
   43.93479        1.7776810E-04
   44.06158        1.6808727E-04
   44.18838        1.5789008E-04
   44.31517        1.4712621E-04
   44.44196        1.3576820E-04
   44.56876        1.2381493E-04
   44.69555        1.1129392E-04
   44.82234        9.8262833E-05
   44.94913        8.4809617E-05
   45.07593        7.1051792E-05
   45.20272        5.7134512E-05
   45.32951        4.3227545E-05
   45.45631        2.9521458E-05
   45.58310        1.6222901E-05
   45.70989        3.5492451E-06
   45.83668       -8.2771639E-06
   45.96347       -1.9035035E-05
   46.09027       -2.8510234E-05
   46.21706       -3.6501766E-05
   46.34385       -4.2827389E-05
   46.47065       -4.7328755E-05
   46.59744       -4.9875925E-05
   46.72423       -5.0371127E-05
   46.85102       -4.8751652E-05
   46.97782       -4.4991906E-05
   47.10461       -3.9104540E-05
   47.23140       -3.1140626E-05
   47.35820       -2.1189011E-05
   47.48499       -9.3748322E-06
   47.61178        4.1427074E-06
   47.73857        1.9173251E-05
   47.86536        3.5498724E-05
   47.99216        5.2877283E-05
   48.11895        7.1047623E-05
   48.24574        8.9733592E-05
   48.37254        1.0864897E-04
   48.49933        1.2750246E-04
   48.62612        1.4600261E-04
   48.75291        1.6386283E-04
   48.87971        1.8080616E-04
   49.00650        1.9657006E-04
   49.13329        2.1091085E-04
   49.26009        2.2360774E-04
   49.38688        2.3446674E-04
   49.51367        2.4332386E-04
   49.64046        2.5004783E-04
   49.76725        2.5454245E-04
   49.89405        2.5674806E-04
   50.02084        2.5664235E-04
   50.14763        2.5424064E-04
   50.27443        2.4959532E-04
   50.40122        2.4279453E-04
   50.52801        2.3396029E-04
   50.65480        2.2324588E-04
   50.78160        2.1083269E-04
   50.90839        1.9692646E-04
   51.03518        1.8175320E-04
   51.16198        1.6555471E-04
   51.28877        1.4858381E-04
   51.41556        1.3109963E-04
   51.54235        1.1336253E-04
   51.66914        9.5629483E-05
   51.79594        7.8149395E-05
   51.92273        6.1158848E-05
   52.04952        4.4878187E-05
   52.17632        2.9508043E-05
   52.30311        1.5226454E-05
   52.42990        2.1865292E-06
   52.55669       -9.4852112E-06
   52.68349       -1.9689925E-05
   52.81028       -2.8356859E-05
   52.93707       -3.5443132E-05
   53.06387       -4.0933006E-05
   53.19066       -4.4836532E-05
   53.31745       -4.7187870E-05
   53.44424       -4.8043144E-05
   53.57103       -4.7477988E-05
   53.69783       -4.5584969E-05
   53.82462       -4.2470852E-05
   53.95141       -3.8253824E-05
   54.07821       -3.3060805E-05
   54.20500       -2.7024880E-05
   54.33179       -2.0282871E-05
   54.45858       -1.2973140E-05
   54.58538       -5.2336663E-06
   54.71217        2.7997287E-06
   54.83896        1.0994883E-05
   54.96576        1.9224597E-05
   55.09255        2.7367800E-05
   55.21934        3.5310582E-05
   55.34613        4.2947097E-05
   55.47292        5.0180446E-05
   55.59972        5.6923516E-05
   55.72651        6.3099789E-05
   55.85330        6.8644062E-05
   55.98009        7.3503215E-05
   56.10689        7.7636854E-05
   56.23368        8.1017810E-05
   56.36047        8.3632607E-05
   56.48727        8.5481552E-05
   56.61406        8.6578766E-05
   56.74085        8.6951797E-05
   56.86765        8.6641092E-05
   56.99444        8.5698950E-05
   57.12123        8.4188381E-05
   57.24802        8.2181505E-05
   57.37481        7.9757861E-05
   57.50161        7.7002289E-05
   57.62840        7.4002914E-05
   57.75519        7.0848830E-05
   57.88198        6.7627931E-05
   58.00878        6.4424719E-05
   58.13557        6.1318307E-05
   58.26236        5.8380690E-05
   58.38916        5.5675191E-05
   58.51595        5.3255393E-05
   58.64274        5.1164341E-05
   58.76954        4.9434286E-05
   58.89633        4.8086746E-05
   59.02312        4.7132940E-05
   59.14991        4.6574776E-05
   59.27670        4.6405909E-05
   59.40350        4.6613251E-05
   59.53029        4.7178532E-05
   59.65708        4.8079979E-05
   59.78387        4.9293951E-05
   59.91067        5.0796476E-05
   60.03746        5.2564559E-05
   60.16425        5.4577198E-05
   60.29105        5.6816061E-05
   60.41784        5.9265723E-05
   60.54463        6.1913495E-05
   60.67142        6.4748776E-05
   60.79822        6.7762085E-05
   60.92501        7.0943614E-05
   61.05180        7.4281568E-05
   61.17859        7.7760335E-05
   61.30539        8.1358456E-05
   61.43218        8.5046820E-05
   61.55897        8.8786874E-05
   61.68576        9.2529233E-05
   61.81256        9.6212672E-05
   61.93935        9.9763689E-05
   62.06614        1.0309659E-04
   62.19294        1.0611438E-04
   62.31973        1.0871019E-04
   62.44652        1.1076952E-04
   62.57331        1.1217307E-04
   62.70011        1.1280018E-04
   62.82690        1.1253265E-04
   62.95369        1.1125902E-04
   63.08048        1.0887896E-04
   63.20728        1.0530773E-04
   63.33407        1.0048036E-04
   63.46086        9.4355673E-05
   63.58765        8.6919616E-05
   63.71445        7.8188044E-05
   63.84124        6.8208676E-05
   63.96803        5.7062054E-05
   64.09483        4.4861637E-05
   64.22162        3.1752807E-05
   64.34841        1.7910781E-05
   64.47520        3.5376511E-06
   64.60200       -1.1141530E-05
   64.72879       -2.5883521E-05
   64.85558       -4.0432275E-05
   64.98238       -5.4524793E-05
   65.10917       -6.7897330E-05
   65.23596       -8.0291655E-05
   65.36275       -9.1461312E-05
   65.48955       -1.0117743E-04
   65.61633       -1.0923424E-04
   65.74313       -1.1545385E-04
   65.86992       -1.1969031E-04
   65.99671       -1.2183273E-04
   66.12350       -1.2180753E-04
   66.25030       -1.1957969E-04
   66.37709       -1.1515293E-04
   66.50388       -1.0856910E-04
   66.63068       -9.9906538E-05
   66.75747       -8.9277673E-05
   66.88426       -7.6826036E-05
   67.01105       -6.2722553E-05
   67.13785       -4.7161549E-05
   67.26464       -3.0356487E-05
   67.39143       -1.2535495E-05
   67.51823        6.0630359E-06
   67.64502        2.5194722E-05
   67.77181        4.4613247E-05
   67.89861        6.4074135E-05
   68.02540        8.3338091E-05
   68.15219        1.0217401E-04
   68.27898        1.2036156E-04
   68.40578        1.3769326E-04
   68.53257        1.5397633E-04
   68.65936        1.6903406E-04
   68.78616        1.8270695E-04
   68.91295        1.9485367E-04
   69.03974        2.0535172E-04
   69.16653        2.1409805E-04
   69.29333        2.2100957E-04
   69.42011        2.2602368E-04
   69.54691        2.2909857E-04
   69.67370        2.3021385E-04
   69.80049        2.2937075E-04
   69.92728        2.2659254E-04
   70.05408        2.2192470E-04
   70.18087        2.1543495E-04
   70.30766        2.0721312E-04
   70.43446        1.9737062E-04
   70.56125        1.8603975E-04
   70.68804        1.7337235E-04
   70.81483        1.5953847E-04
   70.94163        1.4472414E-04
   71.06842        1.2912898E-04
   71.19521        1.1296340E-04
   71.32201        9.6445277E-05
   71.44880        7.9796475E-05
   71.57559        6.3239073E-05
   71.70238        4.6991478E-05
   71.82918        3.1264590E-05
   71.95597        1.6257947E-05
   72.08276        2.1562512E-06
   72.20956       -1.0873888E-05
   72.33635       -2.2686709E-05
   72.46314       -3.3159533E-05
   72.58994       -4.2194461E-05
   72.71673       -4.9719405E-05
   72.84352       -5.5688572E-05
   72.97031       -6.0082260E-05
   73.09711       -6.2906169E-05
   73.22389       -6.4190164E-05
   73.35069       -6.3986721E-05
   73.47748       -6.2368948E-05
   73.60427       -5.9428425E-05
   73.73106       -5.5272911E-05
   73.85786       -5.0023940E-05
   73.98465       -4.3814460E-05
   74.11144       -3.6786430E-05
   74.23824       -2.9088596E-05
   74.36503       -2.0874282E-05
   74.49182       -1.2299302E-05
   74.61861       -3.5199180E-06
   74.74541        5.3090707E-06
   74.87220        1.4036207E-05
   74.99899        2.2515223E-05
   75.12579        3.0606836E-05
   75.25258        3.8180511E-05
   75.37937        4.5116223E-05
   75.50616        5.1306150E-05
   75.63296        5.6656267E-05
   75.75975        6.1087885E-05
   75.88654        6.4538974E-05
   76.01334        6.6965396E-05
   76.14013        6.8341804E-05
   76.26692        6.8662353E-05
   76.39371        6.7941008E-05
   76.52051        6.6211585E-05
   76.64730        6.3527361E-05
   76.77409        5.9960395E-05
   76.90089        5.5600405E-05
   77.02767        5.0553339E-05
   77.15446        4.4939603E-05
   77.28126        3.8892002E-05
   77.40805        3.2553369E-05
   77.53484        2.6074034E-05
   77.66164        1.9609057E-05
   77.78843        1.3315352E-05
   77.91522        7.3486840E-06
   78.04202        1.8606448E-06
   78.16881       -3.0044048E-06
   78.29560       -7.1123363E-06
   78.42239       -1.0342135E-05
   78.54919       -1.2588669E-05
   78.67598       -1.3765225E-05
   78.80277       -1.3805727E-05
   78.92957       -1.2666680E-05
   79.05636       -1.0328646E-05
   79.18315       -6.7973024E-06
   79.30994       -2.1039573E-06
   79.43674        3.6944737E-06
   79.56353        1.0516090E-05
   79.69032        1.8255179E-05
   79.81712        2.6784022E-05
   79.94391        3.5955272E-05
   80.07070        4.5604818E-05
   80.19749        5.5555236E-05
   80.32429        6.5619526E-05
   80.45108        7.5605356E-05
   80.57787        8.5319356E-05
   80.70466        9.4571718E-05
   80.83145        1.0318078E-04
   80.95824        1.1097740E-04
   81.08504        1.1780925E-04
   81.21183        1.2354468E-04
   81.33862        1.2807609E-04
   81.46542        1.3132280E-04
   81.59221        1.3323320E-04
   81.71900        1.3378622E-04
   81.84579        1.3299193E-04
   81.97259        1.3089141E-04
   82.09938        1.2755567E-04
   82.22617        1.2308398E-04
   82.35297        1.1760122E-04
   82.47976        1.1125457E-04
   82.60655        1.0420976E-04
   82.73335        9.6646625E-05
   82.86014        8.8754183E-05
   82.98693        8.0725767E-05
   83.11372        7.2753654E-05
   83.24052        6.5023967E-05
   83.36731        5.7711637E-05
   83.49410        5.0975636E-05
   83.62090        4.4954777E-05
   83.74769        3.9764047E-05
   83.87448        3.5491586E-05
   84.00127        3.2196564E-05
   84.12807        2.9907891E-05
   84.25486        2.8623850E-05
   84.38165        2.8312625E-05
   84.50844        2.8913821E-05
   84.63523        3.0340796E-05
   84.76202        3.2483786E-05
   84.88882        3.5213663E-05
   85.01561        3.8386272E-05
   85.14240        4.1847114E-05
   85.26920        4.5436285E-05
   85.39599        4.8993374E-05
   85.52278        5.2362291E-05
   85.64957        5.5395853E-05
   85.77637        5.7959813E-05
   85.90316        5.9936498E-05
   86.02995        6.1227678E-05
   86.15675        6.1756742E-05
   86.28354        6.1470193E-05
   86.41033        6.0338261E-05
   86.53712        5.8354890E-05
   86.66392        5.5536912E-05
   86.79071        5.1922689E-05
   86.91750        4.7570156E-05
   87.04430        4.2554453E-05
   87.17109        3.6965204E-05
   87.29788        3.0903611E-05
   87.42467        2.4479386E-05
   87.55147        1.7807775E-05
   87.67826        1.1006523E-05
   87.80505        4.1931416E-06
   87.93185       -2.5176498E-06
   88.05864       -9.0161793E-06
   88.18543       -1.5199703E-05
   88.31222       -2.0973972E-05
   88.43901       -2.6254393E-05
   88.56580       -3.0966810E-05
   88.69260       -3.5047968E-05
   88.81939       -3.8445665E-05
   88.94618       -4.1118597E-05
   89.07298       -4.3035972E-05
   89.19977       -4.4177013E-05
   89.32656       -4.4530276E-05
   89.45335       -4.4093023E-05
   89.58015       -4.2870492E-05
   89.70694       -4.0875340E-05
   89.83373       -3.8127095E-05
   89.96053       -3.4651770E-05
   90.08732       -3.0481642E-05
   90.21411       -2.5655178E-05
   90.34090       -2.0217052E-05
   90.46770       -1.4218310E-05
   90.59449       -7.7165405E-06
   90.72128       -7.7606722E-07
   90.84808        6.5319109E-06
   90.97487        1.4129379E-05
   91.10166        2.1931677E-05
   91.22845        2.9847954E-05
   91.35525        3.7781956E-05
   91.48204        4.5633064E-05
   91.60883        5.3297736E-05
   91.73563        6.0671191E-05
   91.86242        6.7649446E-05
   91.98921        7.4131582E-05
   92.11600        8.0022131E-05
   92.24279        8.5233609E-05
   92.36958        8.9688954E-05
   92.49638        9.3323884E-05
   92.62317        9.6089061E-05
   92.74996        9.7951845E-05
   92.87675        9.8897675E-05
   93.00355        9.8930956E-05
   93.13034        9.8075383E-05
   93.25713        9.6373733E-05
   93.38393        9.3887073E-05
   93.51072        9.0693386E-05
   93.63751        8.6885761E-05
   93.76431        8.2570121E-05
   93.89110        7.7862613E-05
   94.01789        7.2886709E-05
   94.14468        6.7770190E-05
   94.27148        6.2642059E-05
   94.39827        5.7629473E-05
   94.52506        5.2854866E-05
   94.65186        4.8433223E-05
   94.77865        4.4469598E-05
   94.90544        4.1057057E-05
   95.03223        3.8274873E-05
   95.15903        3.6187193E-05
   95.28582        3.4842004E-05
   95.41261        3.4270623E-05
   95.53941        3.4487395E-05
   95.66620        3.5489891E-05
   95.79299        3.7259328E-05
   95.91978        3.9761351E-05
   96.04657        4.2947082E-05
   96.17336        4.6754278E-05
   96.30016        5.1108800E-05
   96.42695        5.5926143E-05
   96.55374        6.1113111E-05
   96.68053        6.6569541E-05
   96.80733        7.2190072E-05
   96.93412        7.7866011E-05
   97.06091        8.3487052E-05
   97.18771        8.8943139E-05
   97.31450        9.4126182E-05
   97.44129        9.8931770E-05
   97.56808        1.0326079E-04
   97.69488        1.0702101E-04
   97.82167        1.1012849E-04
   97.94846        1.1250904E-04
   98.07526        1.1409934E-04
   98.20205        1.1484810E-04
   98.32884        1.1471703E-04
   98.45564        1.1368163E-04
   98.58243        1.1173188E-04
   98.70922        1.0887269E-04
   98.83601        1.0512421E-04
   98.96281        1.0052194E-04
   99.08960        9.5116571E-05
   99.21639        8.8973604E-05
   99.34319        8.2172686E-05
   99.46998        7.4806681E-05
   99.59677        6.6980356E-05
   99.72356        5.8808811E-05
   99.85035        5.0415536E-05
   99.97714        4.1930190E-05
   100.1039        3.3486132E-05
   100.2307        2.5217671E-05
   100.3575        1.7257224E-05
   100.4843        9.7323255E-06
   100.6111        2.7627757E-06
   100.7379       -3.5421842E-06
   100.8647       -9.0864623E-06
   100.9915       -1.3789363E-05
   101.1183       -1.7587452E-05
   101.2451       -2.0435991E-05
   101.3719       -2.2309832E-05
   101.4987       -2.3203795E-05
   101.6255       -2.3132468E-05
   101.7522       -2.2129567E-05
   101.8790       -2.0246667E-05
   102.0058       -1.7551643E-05
   102.1326       -1.4126534E-05
   102.2594       -1.0065239E-05
   102.3862       -5.4709003E-06
   102.5130       -4.5302562E-07
   102.6398        4.8754100E-06
   102.7666        1.0400868E-05
   102.8934        1.6012136E-05
   103.0202        2.1603075E-05
   103.1470        2.7075124E-05
   103.2738        3.2339554E-05
   103.4006        3.7319347E-05
   103.5273        4.1950665E-05
   103.6541        4.6183901E-05
   103.7809        4.9984301E-05
   103.9077        5.3331987E-05
   104.0345        5.6221634E-05
   104.1613        5.8661532E-05
   104.2881        6.0672341E-05
   104.4149        6.2285333E-05
   104.5417        6.3540363E-05
   104.6685        6.4483480E-05
   104.7953        6.5164437E-05
   104.9221        6.5633998E-05
   105.0489        6.5941291E-05
   105.1756        6.6131244E-05
   105.3024        6.6242210E-05
   105.4292        6.6303946E-05
   105.5560        6.6335939E-05
   105.6828        6.6346198E-05
   105.8096        6.6330693E-05
   105.9364        6.6273329E-05
   106.0632        6.6146582E-05
   106.1900        6.5912725E-05
   106.3168        6.5525608E-05
   106.4436        6.4933010E-05
   106.5704        6.4079308E-05
   106.6972        6.2908512E-05
   106.8240        6.1367413E-05
   106.9507        5.9408758E-05
   107.0775        5.6994275E-05
   107.2043        5.4097458E-05
   107.3311        5.0705887E-05
   107.4579        4.6823076E-05
   107.5847        4.2469685E-05
   107.7115        3.7684109E-05
   107.8383        3.2522337E-05
   107.9651        2.7057135E-05
   108.0919        2.1376571E-05
   108.2187        1.5581954E-05
   108.3455        9.7852826E-06
   108.4723        4.1062203E-06
   108.5990       -1.3311259E-06
   108.7258       -6.4016504E-06
   108.8526       -1.0982737E-05
   108.9794       -1.4957646E-05
   109.1062       -1.8218736E-05
   109.2330       -2.0670384E-05
   109.3598       -2.2231581E-05
   109.4866       -2.2838101E-05
   109.6134       -2.2444181E-05
   109.7402       -2.1023774E-05
   109.8670       -1.8571242E-05
   109.9938       -1.5101506E-05
   110.1206       -1.0649772E-05
   110.2474       -5.2707605E-06
   110.3741        9.6259998E-07
   110.5009        7.9608890E-06
   110.6277        1.5620222E-05