  -4.500000        3.5612470E-18
  -4.373208        3.5611883E-18
  -4.246415        3.5610783E-18
  -4.119622        3.5609273E-18
  -3.992829        3.5607652E-18
  -3.866037        3.5601006E-18
  -3.739244        3.5553865E-18
  -3.612452        3.5358919E-18
  -3.485659        3.4865237E-18
  -3.358866        3.4153940E-18
  -3.232074        3.4149763E-18
  -3.105281        3.7216192E-18
  -2.978488        4.6796842E-18
  -2.851696        6.5142512E-18
  -2.724903        8.9362530E-18
  -2.598110        1.0805504E-17
  -2.471318        1.0172294E-17
  -2.344525        4.7986571E-18
  -2.217732       -7.2421871E-18
  -2.090940       -2.7646044E-17
  -1.964147       -5.8994091E-17
  -1.837354       -1.0590683E-16
  -1.710562       -1.7370394E-16
  -1.583769       -2.6195764E-16
  -1.456976       -3.5310781E-16
  -1.330184       -4.0160532E-16
  -1.203391       -3.3397138E-16
  -1.076598       -7.0259146E-17
 -0.9498057        4.3056043E-16
 -0.8230131        1.1138074E-15
 -0.6962205        1.7891337E-15
 -0.5694278        2.1423682E-15
 -0.4426351        1.8237797E-15
 -0.3158425        6.0862038E-16
 -0.1890498       -1.4132451E-15
 -6.2257171E-02   -3.6953794E-15
  6.4535484E-02   -5.2276155E-15
  0.1913281       -4.7258810E-15
  0.3181208       -1.0208698E-15
  0.4449134        6.4336532E-15
  0.5717061        1.7086835E-14
  0.6984987        2.9041609E-14
  0.8252914        3.9194596E-14
  0.9520841        4.3833037E-14
   1.078877        3.9610323E-14
   1.205669        2.4669154E-14
   1.332462       -4.2108755E-16
   1.459255       -3.2249587E-14
   1.586047       -6.4894277E-14
   1.712840       -9.1009713E-14
   1.839633       -1.0344458E-13
   1.966425       -9.6973949E-14
   2.093218       -6.9673163E-14
   2.220011       -2.3565741E-14
   2.346803        3.5582519E-14
   2.473596        9.9162682E-14
   2.600389        1.5693612E-13
   2.727181        1.9813661E-13
   2.853974        2.1220023E-13
   2.980767        1.8918397E-13
   3.107559        1.2027499E-13
   3.234352       -1.0210569E-15
   3.361145       -1.7653903E-13
   3.487937       -3.9993974E-13
   3.614730       -6.5268835E-13
   3.741522       -9.0088516E-13
   3.868315       -1.0947091E-12
   3.995108       -1.1720858E-12
   4.121901       -1.0673899E-12
   4.248693       -7.2464051E-13
   4.375485       -1.1307716E-13
   4.502278        7.5829344E-13
   4.629071        1.8311535E-12
   4.755864        2.9967795E-12
   4.882656        4.1052218E-12
   5.009449        4.9841628E-12
   5.136241        5.4642792E-12
   5.263034        5.4059457E-12
   5.389827        4.7213518E-12
   5.516620        3.3869550E-12
   5.643412        1.4435311E-12
   5.770205       -1.0156251E-12
   5.896997       -3.8645710E-12
   6.023790       -6.9665619E-12
   6.150583       -1.0191459E-11
   6.277375       -1.3424113E-11
   6.404168       -1.6562876E-11
   6.530961       -1.9512184E-11
   6.657753       -2.2177144E-11
   6.784546       -2.4470292E-11
   6.911339       -2.6339101E-11
   7.038131       -2.7817812E-11
   7.164924       -2.9098703E-11
   7.291717       -3.0608058E-11
   7.418509       -3.3063288E-11
   7.545302       -3.7482618E-11
   7.672095       -4.5119863E-11
   7.798887       -5.7305168E-11
   7.925680       -7.5187738E-11
   8.052472       -9.9395908E-11
   8.179265       -1.2964947E-10
   8.306058       -1.6437440E-10
   8.432851       -2.0037584E-10
   8.559643       -2.3262101E-10
   8.686436       -2.5416647E-10
   8.813229       -2.5624250E-10
   8.940022       -2.2848326E-10
   9.066813       -1.5927581E-10
   9.193606       -3.6201868E-11
   9.320399        1.5343467E-10
   9.447192        4.2196141E-10
   9.573984        7.8049017E-10
   9.700777        1.2377381E-09
   9.827570        1.7983591E-09
   9.954362        2.4606375E-09
   10.08115        3.2134646E-09
   10.20795        4.0326351E-09
   10.33474        4.8766822E-09
   10.46153        5.6826734E-09
   10.58833        6.3625984E-09
   10.71512        6.8011436E-09
   10.84191        6.8557413E-09
   10.96870        6.3597332E-09
   11.09550        5.1293378E-09
   11.22229        2.9747738E-09
   11.34908       -2.8453806E-10
   11.47587       -4.8013118E-09
   11.60267       -1.0679466E-08
   11.72946       -1.7952706E-08
   11.85625       -2.6564903E-08
   11.98304       -3.6354969E-08
   12.10984       -4.7049230E-08
   12.23663       -5.8264469E-08
   12.36342       -6.9524731E-08
   12.49022       -8.0294946E-08
   12.61701       -9.0034085E-08
   12.74380       -9.8270164E-08
   12.87059       -1.0469886E-07
   12.99739       -1.0930675E-07
   13.12418       -1.1251906E-07
   13.25097       -1.1537107E-07
   13.37776       -1.1970043E-07
   13.50456       -1.2835656E-07
   13.63135       -1.4542144E-07
   13.75814       -1.7643441E-07
   13.88493       -2.2861224E-07
   14.01173       -3.1105432E-07
   14.13852       -4.3492173E-07
   14.26531       -6.1357861E-07
   14.39211       -8.6268545E-07
   14.51890       -1.2002315E-06
   14.64569       -1.6465004E-06
   14.77248       -2.2239590E-06
   14.89928       -2.9570660E-06
   15.02607       -3.8720004E-06
   15.15286       -4.9963073E-06
   15.27965       -6.3584716E-06
   15.40645       -7.9874217E-06
   15.53324       -9.9119789E-06
   15.66003       -1.2160259E-05
   15.78682       -1.4759051E-05
   15.91362       -1.7733182E-05
   16.04041       -2.1104877E-05
   16.16720       -2.4893150E-05
   16.29399       -2.9113207E-05
   16.42079       -3.3775927E-05
   16.54758       -3.8887356E-05
   16.67437       -4.4448290E-05
   16.80116       -5.0453924E-05
   16.92796       -5.6893572E-05
   17.05475       -6.3750456E-05
   17.18154       -7.1001610E-05
   17.30834       -7.8617813E-05
   17.43513       -8.6563712E-05
   17.56192       -9.4797935E-05
   17.68871       -1.0327342E-04
   17.81551       -1.1193778E-04
   17.94230       -1.2073384E-04
   18.06909       -1.2960030E-04
   18.19588       -1.3847250E-04
   18.32268       -1.4728337E-04
   18.44947       -1.5596439E-04
   18.57626       -1.6444673E-04
   18.70305       -1.7266251E-04
   18.82985       -1.8054596E-04
   18.95664       -1.8803473E-04
   19.08343       -1.9507109E-04
   19.21023       -2.0160309E-04
   19.33702       -2.0758569E-04
   19.46381       -2.1298158E-04
   19.59060       -2.1776203E-04
   19.71740       -2.2190734E-04
   19.84419       -2.2540720E-04
   19.97098       -2.2826075E-04
   20.09777       -2.3047636E-04
   20.22457       -2.3207128E-04
   20.35136       -2.3307094E-04
   20.47815       -2.3350817E-04
   20.60494       -2.3342221E-04
   20.73174       -2.3285756E-04
   20.85853       -2.3186296E-04
   20.98532       -2.3049013E-04
   21.11212       -2.2879266E-04
   21.23891       -2.2682511E-04
   21.36570       -2.2464199E-04
   21.49249       -2.2229721E-04
   21.61929       -2.1984347E-04
   21.74608       -2.1733184E-04
   21.87287       -2.1481176E-04
   21.99966       -2.1233094E-04
   22.12646       -2.0993536E-04
   22.25325       -2.0766957E-04
   22.38004       -2.0557689E-04
   22.50683       -2.0369938E-04
   22.63363       -2.0207812E-04
   22.76042       -2.0075303E-04
   22.88721       -1.9976270E-04
   23.01401       -1.9914392E-04
   23.14080       -1.9893117E-04
   23.26759       -1.9915569E-04
   23.39438       -1.9984460E-04
   23.52118       -2.0101972E-04
   23.64797       -2.0269642E-04
   23.77476       -2.0488237E-04
   23.90155       -2.0757644E-04
   24.02835       -2.1076763E-04
   24.15514       -2.1443430E-04
   24.28193       -2.1854375E-04
   24.40872       -2.2305196E-04
   24.53552       -2.2790403E-04
   24.66231       -2.3303478E-04
   24.78910       -2.3836999E-04
   24.91590       -2.4382809E-04
   25.04269       -2.4932213E-04
   25.16948       -2.5476218E-04
   25.29627       -2.6005800E-04
   25.42307       -2.6512184E-04
   25.54986       -2.6987144E-04
   25.67665       -2.7423294E-04
   25.80344       -2.7814339E-04
   25.93024       -2.8155357E-04
   26.05703       -2.8442979E-04
   26.18382       -2.8675571E-04
   26.31061       -2.8853337E-04
   26.43741       -2.8978393E-04
   26.56420       -2.9054744E-04
   26.69099       -2.9088208E-04
   26.81779       -2.9086313E-04
   26.94458       -2.9058105E-04
   27.07137       -2.9013897E-04
   27.19816       -2.8964999E-04
   27.32495       -2.8923427E-04
   27.45175       -2.8901559E-04
   27.57854       -2.8911809E-04
   27.70533       -2.8966286E-04
   27.83213       -2.9076484E-04
   27.95892       -2.9252999E-04
   28.08571       -2.9505251E-04
   28.21250       -2.9841290E-04
   28.33930       -3.0267614E-04
   28.46609       -3.0789053E-04
   28.59288       -3.1408691E-04
   28.71968       -3.2127855E-04
   28.84647       -3.2946136E-04
   28.97326       -3.3861445E-04
   29.10005       -3.4870137E-04
   29.22684       -3.5967139E-04
   29.35364       -3.7146109E-04
   29.48043       -3.8399623E-04
   29.60722       -3.9719354E-04
   29.73402       -4.1096294E-04
   29.86081       -4.2520947E-04
   29.98760       -4.3983542E-04
   30.11439       -4.5474205E-04
   30.24119       -4.6983169E-04
   30.36798       -4.8500931E-04
   30.49477       -5.0018390E-04
   30.62156       -5.1526999E-04
   30.74836       -5.3018879E-04
   30.87515       -5.4486893E-04
   31.00194       -5.5924745E-04
   31.12873       -5.7326985E-04
   31.25553       -5.8689073E-04
   31.38232       -6.0007360E-04
   31.50911       -6.1279075E-04
   31.63591       -6.2502269E-04
   31.76270       -6.3675747E-04
   31.88949       -6.4799003E-04
   32.01628       -6.5872062E-04
   32.14308       -6.6895375E-04
   32.26987       -6.7869702E-04
   32.39666       -6.8795873E-04
   32.52345       -6.9674669E-04
   32.65025       -7.0506625E-04
   32.77704       -7.1291829E-04
   32.90383       -7.2029768E-04
   33.03062       -7.2719139E-04
   33.15742       -7.3357712E-04
   33.28421       -7.3942199E-04
   33.41100       -7.4468151E-04
   33.53780       -7.4929901E-04
   33.66459       -7.5320562E-04
   33.79138       -7.5632043E-04
   33.91817       -7.5855153E-04
   34.04497       -7.5979735E-04
   34.17176       -7.5994828E-04
   34.29855       -7.5888954E-04
   34.42534       -7.5650355E-04
   34.55214       -7.5267348E-04
   34.67893       -7.4728654E-04
   34.80572       -7.4023771E-04
   34.93251       -7.3143357E-04
   35.05931       -7.2079583E-04
   35.18610       -7.0826506E-04
   35.31289       -6.9380365E-04
   35.43969       -6.7739893E-04
   35.56648       -6.5906515E-04
   35.69327       -6.3884543E-04
   35.82006       -6.1681261E-04
   35.94686       -5.9306959E-04
   36.07365       -5.6774897E-04
   36.20044       -5.4101192E-04
   36.32723       -5.1304622E-04
   36.45403       -4.8406376E-04
   36.58082       -4.5429741E-04
   36.70761       -4.2399720E-04
   36.83440       -3.9342625E-04
   36.96120       -3.6285605E-04
   37.08799       -3.3256173E-04
   37.21478       -3.0281697E-04
   37.34158       -2.7388911E-04
   37.46837       -2.4603406E-04
   37.59516       -2.1949173E-04
   37.72195       -1.9448159E-04
   37.84875       -1.7119858E-04
   37.97554       -1.4980986E-04
   38.10233       -1.3045179E-04
   38.22912       -1.1322799E-04
   38.35592       -9.8207711E-05
   38.48271       -8.5425236E-05
   38.60950       -7.4879768E-05
   38.73629       -6.6536260E-05
   38.86309       -6.0326725E-05
   38.98988       -5.6152272E-05
   39.11667       -5.3885604E-05
   39.24347       -5.3374133E-05
   39.37026       -5.4443321E-05
   39.49705       -5.6900484E-05
   39.62384       -6.0538736E-05
   39.75064       -6.5141125E-05
   39.87743       -7.0484828E-05
   40.00422       -7.6345335E-05
   40.13101       -8.2500650E-05
   40.25780       -8.8735127E-05
   40.38460       -9.4843381E-05
   40.51139       -1.0063373E-04
   40.63818       -1.0593142E-04
   40.76498       -1.1058133E-04
   40.89177       -1.1445043E-04
   41.01856       -1.1742959E-04
   41.14536       -1.1943493E-04
   41.27215       -1.2040857E-04
   41.39894       -1.2031895E-04
   41.52573       -1.1916034E-04
   41.65253       -1.1695197E-04
   41.77932       -1.1373656E-04
   41.90611       -1.0957833E-04
   42.03290       -1.0456066E-04
   42.15969       -9.8783312E-05
   42.28649       -9.2359485E-05
   42.41328       -8.5412677E-05
   42.54007       -7.8073484E-05
   42.66687       -7.0476475E-05
   42.79366       -6.2757259E-05
   42.92045       -5.5049743E-05
   43.04725       -4.7483740E-05
   43.17404       -4.0182935E-05
   43.30083       -3.3263223E-05
   43.42762       -2.6831507E-05
   43.55442       -2.0984786E-05
   43.68121       -1.5809726E-05
   43.80800       -1.1382400E-05
   43.93479       -7.7682998E-06
   44.06158       -5.0225121E-06
   44.18838       -3.1899629E-06
   44.31517       -2.3056634E-06
   44.44196       -2.3949315E-06
   44.56876       -3.4734849E-06
   44.69555       -5.5474084E-06
   44.82234       -8.6129912E-06
   44.94913       -1.2656413E-05
   45.07593       -1.7653358E-05
   45.20272       -2.3568509E-05
   45.32951       -3.0355075E-05
   45.45631       -3.7954356E-05
   45.58310       -4.6295441E-05
   45.70989       -5.5295113E-05
   45.83668       -6.4858032E-05
   45.96347       -7.4877244E-05
   46.09027       -8.5235057E-05
   46.21706       -9.5804375E-05
   46.34385       -1.0645036E-04
   46.47065       -1.1703255E-04
   46.59744       -1.2740730E-04
   46.72423       -1.3743051E-04
   46.85102       -1.4696056E-04
   46.97782       -1.5586139E-04
   47.10461       -1.6400551E-04
   47.23140       -1.7127703E-04
   47.35820       -1.7757429E-04
   47.48499       -1.8281239E-04
   47.61178       -1.8692523E-04
   47.73857       -1.8986703E-04
   47.86536       -1.9161345E-04
   47.99216       -1.9216210E-04
   48.11895       -1.9153253E-04
   48.24574       -1.8976566E-04
   48.37254       -1.8692277E-04
   48.49933       -1.8308389E-04
   48.62612       -1.7834594E-04
   48.75291       -1.7282041E-04
   48.87971       -1.6663084E-04
   49.00650       -1.5991009E-04
   49.13329       -1.5279758E-04
   49.26009       -1.4543642E-04
   49.38688       -1.3797062E-04
   49.51367       -1.3054251E-04
   49.64046       -1.2329024E-04
   49.76725       -1.1634562E-04
   49.89405       -1.0983216E-04
   50.02084       -1.0386339E-04
   50.14763       -9.8541539E-05
   50.27443       -9.3956427E-05
   50.40122       -9.0184680E-05
   50.52801       -8.7289147E-05
   50.65480       -8.5318556E-05
   50.78160       -8.4307292E-05
   50.90839       -8.4275365E-05
   51.03518       -8.5228479E-05
   51.16198       -8.7158121E-05
   51.28877       -9.0041824E-05
   51.41556       -9.3843322E-05
   51.54235       -9.8512966E-05
   51.66914       -1.0398805E-04
   51.79594       -1.1019334E-04
   51.92273       -1.1704168E-04
   52.04952       -1.2443488E-04
   52.17632       -1.3226467E-04
   52.30311       -1.4041406E-04
   52.42990       -1.4875883E-04
   52.55669       -1.5716944E-04
   52.68349       -1.6551315E-04
   52.81028       -1.7365637E-04
   52.93707       -1.8146740E-04
   53.06387       -1.8881910E-04
   53.19066       -1.9559183E-04
   53.31745       -2.0167622E-04
   53.44424       -2.0697594E-04
   53.57103       -2.1141012E-04
   53.69783       -2.1491552E-04
   53.82462       -2.1744808E-04
   53.95141       -2.1898415E-04
   54.07821       -2.1952101E-04
   54.20500       -2.1907671E-04
   54.33179       -2.1768935E-04
   54.45858       -2.1541564E-04
   54.58538       -2.1232896E-04
   54.71217       -2.0851687E-04
   54.83896       -2.0407810E-04
   54.96576       -1.9911941E-04
   55.09255       -1.9375230E-04
   55.21934       -1.8808947E-04
   55.34613       -1.8224159E-04
   55.47292       -1.7631429E-04
   55.59972       -1.7040550E-04
   55.72651       -1.6460315E-04
   55.85330       -1.5898357E-04
   55.98009       -1.5361048E-04
   56.10689       -1.4853437E-04
   56.23368       -1.4379267E-04
   56.36047       -1.3941052E-04
   56.48727       -1.3540192E-04
   56.61406       -1.3177136E-04
   56.74085       -1.2851579E-04
   56.86765       -1.2562677E-04
   56.99444       -1.2309273E-04
   57.12123       -1.2090110E-04
   57.24802       -1.1904033E-04
   57.37481       -1.1750162E-04
   57.50161       -1.1628022E-04
   57.62840       -1.1537626E-04
   57.75519       -1.1479518E-04
   57.88198       -1.1454746E-04
   58.00878       -1.1464798E-04
   58.13557       -1.1511488E-04
   58.26236       -1.1596786E-04
   58.38916       -1.1722643E-04
   58.51595       -1.1890773E-04
   58.64274       -1.2102433E-04
   58.76954       -1.2358215E-04
   58.89633       -1.2657852E-04
   59.02312       -1.3000051E-04
   59.14991       -1.3382366E-04
   59.27670       -1.3801128E-04
   59.40350       -1.4251425E-04
   59.53029       -1.4727136E-04
   59.65708       -1.5221033E-04
   59.78387       -1.5724928E-04
   59.91067       -1.6229898E-04
   60.03746       -1.6726523E-04
   60.16425       -1.7205186E-04
   60.29105       -1.7656386E-04
   60.41784       -1.8071066E-04
   60.54463       -1.8440936E-04
   60.67142       -1.8758784E-04
   60.79822       -1.9018749E-04
   60.92501       -1.9216559E-04
   61.05180       -1.9349712E-04
   61.17859       -1.9417590E-04
   61.30539       -1.9421513E-04
   61.43218       -1.9364717E-04
   61.55897       -1.9252264E-04
   61.68576       -1.9090877E-04
   61.81256       -1.8888724E-04
   61.93935       -1.8655135E-04
   62.06614       -1.8400283E-04
   62.19294       -1.8134832E-04
   62.31973       -1.7869574E-04
   62.44652       -1.7615053E-04
   62.57331       -1.7381203E-04
   62.70011       -1.7177028E-04
   62.82690       -1.7010303E-04
   62.95369       -1.6887329E-04
   63.08048       -1.6812763E-04
   63.20728       -1.6789493E-04
   63.33407       -1.6818602E-04
   63.46086       -1.6899389E-04
   63.58765       -1.7029472E-04
   63.71445       -1.7204942E-04
   63.84124       -1.7420582E-04
   63.96803       -1.7670120E-04
   64.09483       -1.7946526E-04
   64.22162       -1.8242309E-04
   64.34841       -1.8549830E-04
   64.47520       -1.8861599E-04
   64.60200       -1.9170537E-04
   64.72879       -1.9470225E-04
   64.85558       -1.9755078E-04
   64.98238       -2.0020481E-04
   65.10917       -2.0262877E-04
   65.23596       -2.0479769E-04
   65.36275       -2.0669693E-04
   65.48955       -2.0832113E-04
   65.61633       -2.0967280E-04
   65.74313       -2.1076050E-04
   65.86992       -2.1159678E-04
   65.99671       -2.1219590E-04
   66.12350       -2.1257153E-04
   66.25030       -2.1273458E-04
   66.37709       -2.1269132E-04
   66.50388       -2.1244177E-04
   66.63068       -2.1197858E-04
   66.75747       -2.1128645E-04
   66.88426       -2.1034211E-04
   67.01105       -2.0911501E-04
   67.13785       -2.0756834E-04
   67.26464       -2.0566094E-04
   67.39143       -2.0334934E-04
   67.51823       -2.0059035E-04
   67.64502       -1.9734388E-04
   67.77181       -1.9357567E-04
   67.89861       -1.8926014E-04
   68.02540       -1.8438303E-04
   68.15219       -1.7894359E-04
   68.27898       -1.7295648E-04
   68.40578       -1.6645312E-04
   68.53257       -1.5948233E-04
   68.65936       -1.5211053E-04
   68.78616       -1.4442115E-04
   68.91295       -1.3651334E-04
   69.03974       -1.2850019E-04
   69.16653       -1.2050632E-04
   69.29333       -1.1266497E-04
   69.42011       -1.0511473E-04
   69.54691       -9.7996046E-05
   69.67370       -9.1447459E-05
   69.80049       -8.5602005E-05
   69.92728       -8.0583573E-05
   70.05408       -7.6503631E-05
   70.18087       -7.3458206E-05
   70.30766       -7.1525355E-05
   70.43446       -7.0763155E-05
   70.56125       -7.1208255E-05
   70.68804       -7.2875031E-05
   70.81483       -7.5755386E-05
   70.94163       -7.9819140E-05
   71.06842       -8.5015010E-05
   71.19521       -9.1272115E-05
   71.32201       -9.8501943E-05
   71.44880       -1.0660069E-04
   71.57559       -1.1545189E-04
   71.70238       -1.2492931E-04
   71.82918       -1.3489992E-04
   71.95597       -1.4522682E-04
   72.08276       -1.5577214E-04
   72.20956       -1.6639981E-04
   72.33635       -1.7697801E-04
   72.46314       -1.8738117E-04
   72.58994       -1.9749196E-04
   72.71673       -2.0720247E-04
   72.84352       -2.1641533E-04
   72.97031       -2.2504420E-04
   73.09711       -2.3301403E-04
   73.22389       -2.4026090E-04
   73.35069       -2.4673174E-04
   73.47748       -2.5238364E-04
   73.60427       -2.5718319E-04
   73.73106       -2.6110560E-04
   73.85786       -2.6413382E-04
   73.98465       -2.6625770E-04
   74.11144       -2.6747331E-04
   74.23824       -2.6778213E-04
   74.36503       -2.6719089E-04
   74.49182       -2.6571096E-04
   74.61861       -2.6335867E-04
   74.74541       -2.6015518E-04
   74.87220       -2.5612710E-04
   74.99899       -2.5130683E-04
   75.12579       -2.4573336E-04
   75.25258       -2.3945278E-04
   75.37937       -2.3251920E-04
   75.50616       -2.2499512E-04
   75.63296       -2.1695193E-04
   75.75975       -2.0847014E-04
   75.88654       -1.9963921E-04
   76.01334       -1.9055708E-04
   76.14013       -1.8132928E-04
   76.26692       -1.7206771E-04
   76.39371       -1.6288906E-04
   76.52051       -1.5391276E-04
   76.64730       -1.4525875E-04
   76.77409       -1.3704498E-04
   76.90089       -1.2938479E-04
   77.02767       -1.2238418E-04
   77.15446       -1.1613925E-04
   77.28126       -1.1073364E-04
   77.40805       -1.0623634E-04
   77.53484       -1.0269977E-04
   77.66164       -1.0015836E-04
   77.78843       -9.8627541E-05
   77.91522       -9.8103344E-05
   78.04202       -9.8562552E-05
   78.16881       -9.9963429E-05
   78.29560       -1.0224697E-04
   78.42239       -1.0533878E-04
   78.54919       -1.0915120E-04
   78.67598       -1.1358611E-04
   78.80277       -1.1853768E-04
   78.92957       -1.2389559E-04
   79.05636       -1.2954811E-04
   79.18315       -1.3538533E-04
   79.30994       -1.4130212E-04
   79.43674       -1.4720083E-04
   79.56353       -1.5299373E-04
   79.69032       -1.5860498E-04
   79.81712       -1.6397201E-04
   79.94391       -1.6904641E-04
   80.07070       -1.7379427E-04
   80.19749       -1.7819578E-04
   80.32429       -1.8224442E-04
   80.45108       -1.8594551E-04
   80.57787       -1.8931433E-04
   80.70466       -1.9237392E-04
   80.83145       -1.9515246E-04
   80.95824       -1.9768077E-04
   81.08504       -1.9998946E-04
   81.21183       -2.0210653E-04
   81.33862       -2.0405496E-04
   81.46542       -2.0585078E-04
   81.59221       -2.0750158E-04
   81.71900       -2.0900537E-04
   81.84579       -2.1035031E-04
   81.97259       -2.1151482E-04
   82.09938       -2.1246837E-04
   82.22617       -2.1317281E-04
   82.35297       -2.1358415E-04
   82.47976       -2.1365497E-04
   82.60655       -2.1333685E-04
   82.73335       -2.1258324E-04
   82.86014       -2.1135225E-04
   82.98693       -2.0960945E-04
   83.11372       -2.0733049E-04
   83.24052       -2.0450325E-04
   83.36731       -2.0112978E-04
   83.49410       -1.9722745E-04
   83.62090       -1.9282970E-04
   83.74769       -1.8798601E-04
   83.87448       -1.8276126E-04
   84.00127       -1.7723450E-04
   84.12807       -1.7149704E-04
   84.25486       -1.6565004E-04
   84.38165       -1.5980167E-04
   84.50844       -1.5406404E-04
   84.63523       -1.4854989E-04
   84.76202       -1.4336924E-04
   84.88882       -1.3862614E-04
   85.01561       -1.3441571E-04
   85.14240       -1.3082146E-04
   85.26920       -1.2791308E-04
   85.39599       -1.2574482E-04
   85.52278       -1.2435422E-04
   85.64957       -1.2376173E-04
   85.77637       -1.2397059E-04
   85.90316       -1.2496753E-04
   86.02995       -1.2672369E-04
   86.15675       -1.2919614E-04
   86.28354       -1.3232965E-04
   86.41033       -1.3605868E-04
   86.53712       -1.4030960E-04
   86.66392       -1.4500282E-04
   86.79071       -1.5005510E-04
   86.91750       -1.5538158E-04
   87.04430       -1.6089782E-04
   87.17109       -1.6652149E-04
   87.29788       -1.7217398E-04
   87.42467       -1.7778149E-04
   87.55147       -1.8327616E-04
   87.67826       -1.8859666E-04
   87.80505       -1.9368854E-04
   87.93185       -1.9850442E-04
   88.05864       -2.0300379E-04
   88.18543       -2.0715268E-04
   88.31222       -2.1092314E-04
   88.43901       -2.1429261E-04
   88.56580       -2.1724316E-04
   88.69260       -2.1976075E-04
   88.81939       -2.2183456E-04
   88.94618       -2.2345623E-04
   89.07298       -2.2461938E-04
   89.19977       -2.2531916E-04
   89.32656       -2.2555205E-04
   89.45335       -2.2531566E-04
   89.58015       -2.2460893E-04
   89.70694       -2.2343232E-04
   89.83373       -2.2178829E-04
   89.96053       -2.1968188E-04
   90.08732       -2.1712139E-04
   90.21411       -2.1411914E-04
   90.34090       -2.1069228E-04
   90.46770       -2.0686349E-04
   90.59449       -2.0266173E-04
   90.72128       -1.9812267E-04
   90.84808       -1.9328906E-04
   90.97487       -1.8821080E-04
   91.10166       -1.8294476E-04
   91.22845       -1.7755423E-04
   91.35525       -1.7210825E-04
   91.48204       -1.6668050E-04
   91.60883       -1.6134795E-04
   91.73563       -1.5618939E-04
   91.86242       -1.5128363E-04
   91.98921       -1.4670778E-04
   92.11600       -1.4253533E-04
   92.24279       -1.3883429E-04
   92.36958       -1.3566547E-04
   92.49638       -1.3308092E-04
   92.62317       -1.3112249E-04
   92.74996       -1.2982078E-04
   92.87675       -1.2919436E-04
   93.00355       -1.2924930E-04
   93.13034       -1.2997905E-04
   93.25713       -1.3136474E-04
   93.38393       -1.3337570E-04
   93.51072       -1.3597045E-04
   93.63751       -1.3909776E-04
   93.76431       -1.4269809E-04
   93.89110       -1.4670506E-04
   94.01789       -1.5104702E-04
   94.14468       -1.5564868E-04
   94.27148       -1.6043264E-04
   94.39827       -1.6532086E-04
   94.52506       -1.7023599E-04
   94.65186       -1.7510254E-04
   94.77865       -1.7984783E-04
   94.90544       -1.8440296E-04
   95.03223       -1.8870333E-04
   95.15903       -1.9268927E-04
   95.28582       -1.9630657E-04
   95.41261       -1.9950666E-04
   95.53941       -2.0224706E-04
   95.66620       -2.0449159E-04
   95.79299       -2.0621064E-04
   95.91978       -2.0738137E-04
   96.04657       -2.0798796E-04
   96.17336       -2.0802181E-04
   96.30016       -2.0748169E-04
   96.42695       -2.0637394E-04
   96.55374       -2.0471243E-04
   96.68053       -2.0251865E-04
   96.80733       -1.9982160E-04
   96.93412       -1.9665751E-04
   97.06091       -1.9306959E-04
   97.18771       -1.8910757E-04
   97.31450       -1.8482713E-04
   97.44129       -1.8028921E-04
   97.56808       -1.7555917E-04
   97.69488       -1.7070599E-04
   97.82167       -1.6580129E-04
   97.94846       -1.6091829E-04
   98.07526       -1.5613085E-04
   98.20205       -1.5151231E-04
   98.32884       -1.4713463E-04
   98.45564       -1.4306723E-04
   98.58243       -1.3937599E-04
   98.70922       -1.3612238E-04
   98.83601       -1.3336247E-04
   98.96281       -1.3114596E-04
   99.08960       -1.2951545E-04
   99.21639       -1.2850552E-04
   99.34319       -1.2814203E-04
   99.46998       -1.2844137E-04
   99.59677       -1.2940995E-04
   99.72356       -1.3104359E-04
   99.85035       -1.3332730E-04
   99.97714       -1.3623497E-04
   100.1039       -1.3972948E-04
   100.2307       -1.4376295E-04
   100.3575       -1.4827723E-04
   100.4843       -1.5320479E-04
   100.6111       -1.5846973E-04
   100.7379       -1.6398930E-04
   100.8647       -1.6967552E-04
   100.9915       -1.7543712E-04
   101.1183       -1.8118160E-04
   101.2451       -1.8681752E-04
   101.3719       -1.9225664E-04
   101.4987       -1.9741630E-04
   101.6255       -2.0222133E-04
   101.7522       -2.0660598E-04
   101.8790       -2.1051546E-04
   102.0058       -2.1390694E-04
   102.1326       -2.1675047E-04
   102.2594       -2.1902900E-04
   102.3862       -2.2073816E-04
   102.5130       -2.2188551E-04
   102.6398       -2.2248937E-04
   102.7666       -2.2257720E-04
   102.8934       -2.2218376E-04
   103.0202       -2.2134896E-04
   103.1470       -2.2011578E-04
   103.2738       -2.1852810E-04
   103.4006       -2.1662872E-04
   103.5273       -2.1445748E-04
   103.6541       -2.1205001E-04
   103.7809       -2.0943661E-04
   103.9077       -2.0664162E-04
   104.0345       -2.0368342E-04
   104.1613       -2.0057468E-04
   104.2881       -1.9732311E-04
   104.4149       -1.9393263E-04
   104.5417       -1.9040464E-04
   104.6685       -1.8673969E-04
   104.7953       -1.8293908E-04
   104.9221       -1.7900657E-04
   105.0489       -1.7494998E-04
   105.1756       -1.7078250E-04
   105.3024       -1.6652397E-04
   105.4292       -1.6220164E-04
   105.5560       -1.5785071E-04
   105.6828       -1.5351448E-04
   105.8096       -1.4924405E-04
   105.9364       -1.4509774E-04
   106.0632       -1.4114006E-04
   106.1900       -1.3744035E-04
   106.3168       -1.3407120E-04
   106.4436       -1.3110659E-04
   106.5704       -1.2861968E-04
   106.6972       -1.2668082E-04
   106.8240       -1.2535517E-04
   106.9507       -1.2470048E-04
   107.0775       -1.2476507E-04
   107.2043       -1.2558571E-04
   107.3311       -1.2718607E-04
   107.4579       -1.2957530E-04
   107.5847       -1.3274698E-04
   107.7115       -1.3667853E-04
   107.8383       -1.4133108E-04
   107.9651       -1.4664984E-04
   108.0919       -1.5256490E-04
   108.2187       -1.5899248E-04
   108.3455       -1.6583671E-04
   108.4723       -1.7299171E-04
   108.5990       -1.8034402E-04
   108.7258       -1.8777527E-04
   108.8526       -1.9516492E-04
   108.9794       -2.0239325E-04
   109.1062       -2.0934406E-04
   109.2330       -2.1590728E-04
   109.3598       -2.2198135E-04
   109.4866       -2.2747539E-04
   109.6134       -2.3231076E-04
   109.7402       -2.3642227E-04
   109.8670       -2.3975913E-04
   109.9938       -2.4228510E-04
   110.1206       -2.4397846E-04
   110.2474       -2.4483155E-04
   110.3741       -2.4484974E-04
   110.5009       -2.4405049E-04
   110.6277       -2.4246177E-04