  -4.500000       -1.0230563E-18
  -4.373208       -1.0230467E-18
  -4.246415       -1.0230282E-18
  -4.119622       -1.0230029E-18
  -3.992829       -1.0229731E-18
  -3.866037       -1.0229416E-18
  -3.739244       -1.0229113E-18
  -3.612452       -1.0228852E-18
  -3.485659       -1.0228639E-18
  -3.358866       -1.0228490E-18
  -3.232074       -1.0228409E-18
  -3.105281       -1.0228381E-18
  -2.978488       -1.0228387E-18
  -2.851696       -1.0228404E-18
  -2.724903       -1.0228402E-18
  -2.598110       -1.0228359E-18
  -2.471318       -1.0228255E-18
  -2.344525       -1.0228073E-18
  -2.217732       -1.0227815E-18
  -2.090940       -1.0227489E-18
  -1.964147       -1.0227095E-18
  -1.837354       -1.0226664E-18
  -1.710562       -1.0226221E-18
  -1.583769       -1.0225785E-18
  -1.456976       -1.0225379E-18
  -1.330184       -1.0225030E-18
  -1.203391       -1.0224744E-18
  -1.076598       -1.0224523E-18
 -0.9498057       -1.0224377E-18
 -0.8230131       -1.0224278E-18
 -0.6962205       -1.0224219E-18
 -0.5694278       -1.0224170E-18
 -0.4426351       -1.0224109E-18
 -0.3158425       -1.0224022E-18
 -0.1890498       -1.0223880E-18
 -6.2257171E-02   -1.0223671E-18
  6.4535484E-02   -1.0223386E-18
  0.1913281       -1.0223026E-18
  0.3181208       -1.0222599E-18
  0.4449134       -1.0222115E-18
  0.5717061       -1.0221602E-18
  0.6984987       -1.0221073E-18
  0.8252914       -1.0220562E-18
  0.9520841       -1.0220095E-18
   1.078877       -1.0219685E-18
   1.205669       -1.0219344E-18
   1.332462       -1.0219082E-18
   1.459255       -1.0218889E-18
   1.586047       -1.0218751E-18
   1.712840       -1.0218650E-18
   1.839633       -1.0218553E-18
   1.966425       -1.0218434E-18
   2.093218       -1.0218260E-18
   2.220011       -1.0218013E-18
   2.346803       -1.0217675E-18
   2.473596       -1.0217251E-18
   2.600389       -1.0216741E-18
   2.727181       -1.0216171E-18
   2.853974       -1.0215579E-18
   2.980767       -1.0215006E-18
   3.107559       -1.0214484E-18
   3.234352       -1.0214048E-18
   3.361145       -1.0213713E-18
   3.487937       -1.0213488E-18
   3.614730       -1.0213352E-18
   3.741522       -1.0213278E-18
   3.868315       -1.0213234E-18
   3.995108       -1.0213176E-18
   4.121901       -1.0213060E-18
   4.248693       -1.0212853E-18
   4.375485       -1.0212526E-18
   4.502278       -1.0212070E-18
   4.629071       -1.0211504E-18
   4.755864       -1.0210847E-18
   4.882656       -1.0210143E-18
   5.009449       -1.0209433E-18
   5.136241       -1.0208765E-18
   5.263034       -1.0208171E-18
   5.389827       -1.0207681E-18
   5.516620       -1.0207299E-18
   5.643412       -1.0207026E-18
   5.770205       -1.0206839E-18
   5.896997       -1.0206717E-18
   6.023790       -1.0206606E-18
   6.150583       -1.0206478E-18
   6.277375       -1.0206295E-18
   6.404168       -1.0206034E-18
   6.530961       -1.0205681E-18
   6.657753       -1.0205247E-18
   6.784546       -1.0204731E-18
   6.911339       -1.0204159E-18
   7.038131       -1.0203561E-18
   7.164924       -1.0202968E-18
   7.291717       -1.0202399E-18
   7.418509       -1.0201894E-18
   7.545302       -1.0201472E-18
   7.672095       -1.0201141E-18
   7.798887       -1.0200898E-18
   7.925680       -1.0200735E-18
   8.052472       -1.0200636E-18
   8.179265       -1.0200571E-18
   8.306058       -1.0200513E-18
   8.432851       -1.0200437E-18
   8.559643       -1.0200305E-18
   8.686436       -1.0200104E-18
   8.813229       -1.0199816E-18
   8.940022       -1.0199442E-18
   9.066813       -1.0198984E-18
   9.193606       -1.0198467E-18
   9.320399       -1.0197922E-18
   9.447192       -1.0197379E-18
   9.573984       -1.0196874E-18
   9.700777       -1.0196441E-18
   9.827570       -1.0196105E-18
   9.954362       -1.0195879E-18
   10.08115       -1.0195763E-18
   10.20795       -1.0195748E-18
   10.33474       -1.0195801E-18
   10.46153       -1.0195892E-18
   10.58833       -1.0195978E-18
   10.71512       -1.0196027E-18
   10.84191       -1.0195987E-18
   10.96870       -1.0195838E-18
   11.09550       -1.0195572E-18
   11.22229       -1.0195185E-18
   11.34908       -1.0194702E-18
   11.47587       -1.0194154E-18
   11.60267       -1.0193580E-18
   11.72946       -1.0193017E-18
   11.85625       -1.0192512E-18
   11.98304       -1.0192098E-18
   12.10984       -1.0191790E-18
   12.23663       -1.0191599E-18
   12.36342       -1.0191510E-18
   12.49022       -1.0191497E-18
   12.61701       -1.0191521E-18
   12.74380       -1.0191544E-18
   12.87059       -1.0191531E-18
   12.99739       -1.0191431E-18
   13.12418       -1.0191232E-18
   13.25097       -1.0190920E-18
   13.37776       -1.0190505E-18
   13.50456       -1.0190003E-18
   13.63135       -1.0189436E-18
   13.75814       -1.0188852E-18
   13.88493       -1.0188278E-18
   14.01173       -1.0187742E-18
   14.13852       -1.0187275E-18
   14.26531       -1.0186887E-18
   14.39211       -1.0186587E-18
   14.51890       -1.0186362E-18
   14.64569       -1.0186204E-18
   14.77248       -1.0186085E-18
   14.89928       -1.0185965E-18
   15.02607       -1.0185826E-18
   15.15286       -1.0185629E-18
   15.27965       -1.0185352E-18
   15.40645       -1.0184974E-18
   15.53324       -1.0184490E-18
   15.66003       -1.0183910E-18
   15.78682       -1.0183248E-18
   15.91362       -1.0182520E-18
   16.04041       -1.0181760E-18
   16.16720       -1.0181020E-18
   16.29399       -1.0180337E-18
   16.42079       -1.0179732E-18
   16.54758       -1.0179237E-18
   16.67437       -1.0178856E-18
   16.80116       -1.0178585E-18
   16.92796       -1.0178395E-18
   17.05475       -1.0178266E-18
   17.18154       -1.0178151E-18
   17.30834       -1.0178008E-18
   17.43513       -1.0177794E-18
   17.56192       -1.0177477E-18
   17.68871       -1.0177040E-18
   17.81551       -1.0176476E-18
   17.94230       -1.0175814E-18
   18.06909       -1.0175083E-18
   18.19588       -1.0174322E-18
   18.32268       -1.0173585E-18
   18.44947       -1.0172925E-18
   18.57626       -1.0172383E-18
   18.70305       -1.0171967E-18
   18.82985       -1.0171692E-18
   18.95664       -1.0171539E-18
   19.08343       -1.0171478E-18
   19.21023       -1.0171467E-18
   19.33702       -1.0171453E-18
   19.46381       -1.0171384E-18
   19.59060       -1.0171224E-18
   19.71740       -1.0170949E-18
   19.84419       -1.0170543E-18
   19.97098       -1.0170014E-18
   20.09777       -1.0169386E-18
   20.22457       -1.0168694E-18
   20.35136       -1.0167968E-18
   20.47815       -1.0167258E-18
   20.60494       -1.0166605E-18
   20.73174       -1.0166042E-18
   20.85853       -1.0165592E-18
   20.98532       -1.0165261E-18
   21.11212       -1.0165052E-18
   21.23891       -1.0164952E-18
   21.36570       -1.0164930E-18
   21.49249       -1.0164962E-18
   21.61929       -1.0165009E-18
   21.74608       -1.0165042E-18
   21.87287       -1.0165018E-18
   21.99966       -1.0164904E-18
   22.12646       -1.0164682E-18
   22.25325       -1.0164337E-18
   22.38004       -1.0163884E-18
   22.50683       -1.0163336E-18
   22.63363       -1.0162727E-18
   22.76042       -1.0162103E-18
   22.88721       -1.0161507E-18
   23.01401       -1.0160996E-18
   23.14080       -1.0160603E-18
   23.26759       -1.0160355E-18
   23.39438       -1.0160256E-18
   23.52118       -1.0160290E-18
   23.64797       -1.0160431E-18
   23.77476       -1.0160629E-18
   23.90155       -1.0160825E-18
   24.02835       -1.0160967E-18
   24.15514       -1.0161000E-18
   24.28193       -1.0160885E-18
   24.40872       -1.0160609E-18
   24.53552       -1.0160173E-18
   24.66231       -1.0159598E-18
   24.78910       -1.0158941E-18
   24.91590       -1.0158253E-18
   25.04269       -1.0157603E-18
   25.16948       -1.0157054E-18
   25.29627       -1.0156657E-18
   25.42307       -1.0156449E-18
   25.54986       -1.0156432E-18
   25.67665       -1.0156596E-18
   25.80344       -1.0156905E-18
   25.93024       -1.0157301E-18
   26.05703       -1.0157717E-18
   26.18382       -1.0158085E-18
   26.31061       -1.0158347E-18
   26.43741       -1.0158452E-18
   26.56420       -1.0158382E-18
   26.69099       -1.0158126E-18
   26.81779       -1.0157713E-18
   26.94458       -1.0157190E-18
   27.07137       -1.0156606E-18
   27.19816       -1.0156035E-18
   27.32495       -1.0155525E-18
   27.45175       -1.0155131E-18
   27.57854       -1.0154895E-18
   27.70533       -1.0154836E-18
   27.83213       -1.0154942E-18
   27.95892       -1.0155181E-18
   28.08571       -1.0155506E-18
   28.21250       -1.0155863E-18
   28.33930       -1.0156184E-18
   28.46609       -1.0156410E-18
   28.59288       -1.0156490E-18
   28.71968       -1.0156408E-18
   28.84647       -1.0156147E-18
   28.97326       -1.0155721E-18
   29.10005       -1.0155175E-18
   29.22684       -1.0154548E-18
   29.35364       -1.0153912E-18
   29.48043       -1.0153325E-18
   29.60722       -1.0152850E-18
   29.73402       -1.0152529E-18
   29.86081       -1.0152386E-18
   29.98760       -1.0152434E-18
   30.11439       -1.0152654E-18
   30.24119       -1.0152994E-18
   30.36798       -1.0153401E-18
   30.49477       -1.0153801E-18
   30.62156       -1.0154117E-18
   30.74836       -1.0154290E-18
   30.87515       -1.0154273E-18
   31.00194       -1.0154041E-18
   31.12873       -1.0153597E-18
   31.25553       -1.0152968E-18
   31.38232       -1.0152217E-18
   31.50911       -1.0151410E-18
   31.63591       -1.0150622E-18
   31.76270       -1.0149936E-18
   31.88949       -1.0149412E-18
   32.01628       -1.0149093E-18
   32.14308       -1.0148999E-18
   32.26987       -1.0149109E-18
   32.39666       -1.0149380E-18
   32.52345       -1.0149749E-18
   32.65025       -1.0150131E-18
   32.77704       -1.0150435E-18
   32.90383       -1.0150579E-18
   33.03062       -1.0150513E-18
   33.15742       -1.0150204E-18
   33.28421       -1.0149649E-18
   33.41100       -1.0148889E-18
   33.53780       -1.0147982E-18
   33.66459       -1.0147011E-18
   33.79138       -1.0146068E-18
   33.91817       -1.0145240E-18
   34.04497       -1.0144602E-18
   34.17176       -1.0144193E-18
   34.29855       -1.0144032E-18
   34.42534       -1.0144099E-18
   34.55214       -1.0144350E-18
   34.67893       -1.0144720E-18
   34.80572       -1.0145117E-18
   34.93251       -1.0145468E-18
   35.05931       -1.0145697E-18
   35.18610       -1.0145739E-18
   35.31289       -1.0145573E-18
   35.43969       -1.0145188E-18
   35.56648       -1.0144600E-18
   35.69327       -1.0143841E-18
   35.82006       -1.0142979E-18
   35.94686       -1.0142077E-18
   36.07365       -1.0141214E-18
   36.20044       -1.0140452E-18
   36.32723       -1.0139841E-18
   36.45403       -1.0139405E-18
   36.58082       -1.0139157E-18
   36.70761       -1.0139081E-18
   36.83440       -1.0139144E-18
   36.96120       -1.0139294E-18
   37.08799       -1.0139471E-18
   37.21478       -1.0139608E-18
   37.34158       -1.0139644E-18
   37.46837       -1.0139539E-18
   37.59516       -1.0139254E-18
   37.72195       -1.0138795E-18
   37.84875       -1.0138184E-18
   37.97554       -1.0137460E-18
   38.10233       -1.0136673E-18
   38.22912       -1.0135908E-18
   38.35592       -1.0135242E-18
   38.48271       -1.0134731E-18
   38.60950       -1.0134429E-18
   38.73629       -1.0134348E-18
   38.86309       -1.0134486E-18
   38.98988       -1.0134797E-18
   39.11667       -1.0135216E-18
   39.24347       -1.0135664E-18
   39.37026       -1.0136054E-18
   39.49705       -1.0136302E-18
   39.62384       -1.0136350E-18
   39.75064       -1.0136169E-18
   39.87743       -1.0135759E-18
   40.00422       -1.0135167E-18
   40.13101       -1.0134466E-18
   40.25780       -1.0133756E-18
   40.38460       -1.0133158E-18
   40.51139       -1.0132809E-18
   40.63818       -1.0132830E-18
   40.76498       -1.0133324E-18
   40.89177       -1.0134366E-18
   41.01856       -1.0135968E-18
   41.14536       -1.0138125E-18
   41.27215       -1.0140776E-18
   41.39894       -1.0143816E-18
   41.52573       -1.0147102E-18
   41.65253       -1.0150478E-18
   41.77932       -1.0153769E-18
   41.90611       -1.0156802E-18
   42.03290       -1.0159407E-18
   42.15969       -1.0161439E-18
   42.28649       -1.0162775E-18
   42.41328       -1.0163319E-18
   42.54007       -1.0163018E-18
   42.66687       -1.0161837E-18
   42.79366       -1.0159779E-18
   42.92045       -1.0156873E-18
   43.04725       -1.0153177E-18
   43.17404       -1.0148778E-18
   43.30083       -1.0143787E-18
   43.42762       -1.0138343E-18
   43.55442       -1.0132624E-18
   43.68121       -1.0126840E-18
   43.80800       -1.0121249E-18
   43.93479       -1.0116140E-18
   44.06158       -1.0111848E-18
   44.18838       -1.0108721E-18
   44.31517       -1.0107146E-18
   44.44196       -1.0107479E-18
   44.56876       -1.0110076E-18
   44.69555       -1.0115224E-18
   44.82234       -1.0123127E-18
   44.94913       -1.0133879E-18
   45.07593       -1.0147416E-18
   45.20272       -1.0163538E-18
   45.32951       -1.0181854E-18
   45.45631       -1.0201786E-18
   45.58310       -1.0222622E-18
   45.70989       -1.0243509E-18
   45.83668       -1.0263499E-18
   45.96347       -1.0281615E-18
   46.09027       -1.0296888E-18
   46.21706       -1.0308417E-18
   46.34385       -1.0315452E-18
   46.47065       -1.0317397E-18
   46.59744       -1.0313881E-18
   46.72423       -1.0304765E-18
   46.85102       -1.0290137E-18
   46.97782       -1.0270337E-18
   47.10461       -1.0245875E-18
   47.23140       -1.0217441E-18
   47.35820       -1.0185808E-18
   47.48499       -1.0151792E-18
   47.61178       -1.0116199E-18
   47.73857       -1.0079744E-18
   47.86536       -1.0043019E-18
   47.99216       -1.0006447E-18
   48.11895       -9.9702726E-19
   48.24574       -9.9345591E-19
   48.37254       -9.8992261E-19
   48.49933       -9.8641164E-19
   48.62612       -9.8290915E-19
   48.75291       -9.7941545E-19
   48.87971       -9.7596042E-19
   49.00650       -9.7261995E-19
   49.13329       -9.6953550E-19
   49.26009       -9.6692688E-19
   49.38688       -9.6511029E-19
   49.51367       -9.6450511E-19
   49.64046       -9.6563814E-19
   49.76725       -9.6913577E-19
   49.89405       -9.7570772E-19
   50.02084       -9.8611561E-19
   50.14763       -1.0011313E-18
   50.27443       -1.0214787E-18
   50.40122       -1.0477636E-18
   50.52801       -1.0803930E-18
   50.65480       -1.1194845E-18
   50.78160       -1.1647738E-18
   50.90839       -1.2155207E-18
   51.03518       -1.2704263E-18
   51.16198       -1.3275624E-18
   51.28877       -1.3843308E-18
   51.41556       -1.4374484E-18
   51.54235       -1.4829783E-18
   51.66914       -1.5164074E-18
   51.79594       -1.5327789E-18
   51.92273       -1.5268868E-18
   52.04952       -1.4935260E-18
   52.17632       -1.4278009E-18
   52.30311       -1.3254889E-18
   52.42990       -1.1834375E-18
   52.55669       -9.9999353E-19
   52.68349       -7.7543168E-19
   52.81028       -5.1236399E-19
   52.93707       -2.1610163E-19
   53.06387        1.0506251E-19
   53.19066        4.3968294E-19
   53.31745        7.7313330E-19
   53.44424        1.0877496E-18
   53.57103        1.3631730E-18
   53.69783        1.5769070E-18
   53.82462        1.7051040E-18
   53.95141        1.7235772E-18
   54.07821        1.6090235E-18
   54.20500        1.3404351E-18
   54.33179        9.0065307E-19
   54.45858        2.7800620E-19
   54.58538       -5.3203585E-19
   54.71217       -1.5252854E-18
   54.83896       -2.6874250E-18
   54.96576       -3.9928753E-18
   55.09255       -5.4040437E-18
   55.21934       -6.8710647E-18
   55.34613       -8.3321225E-18
   55.47292       -9.7144554E-18
   55.59972       -1.0936079E-17
   55.72651       -1.1908292E-17
   55.85330       -1.2538950E-17
   55.98009       -1.2736469E-17
   56.10689       -1.2414472E-17
   56.23368       -1.1496965E-17
   56.36047       -9.9238455E-18
   56.48727       -7.6565326E-18
   56.61406       -4.6834606E-18
   56.74085       -1.0251167E-18
   56.86765        3.2616755E-18
   56.99444        8.0805661E-18
   57.12123        1.3293940E-17
   57.24802        1.8722884E-17
   57.37481        2.4149182E-17
   57.50161        2.9319516E-17
   57.62840        3.3952022E-17
   57.75519        3.7745231E-17
   57.88198        4.0389327E-17
   58.00878        4.1579504E-17
   58.13557        4.1031116E-17
   58.26236        3.8496145E-17
   58.38916        3.3780359E-17
   58.51595        2.6760510E-17
   58.64274        1.7400659E-17
   58.76954        5.7668154E-18
   58.89633       -7.9610716E-18
   59.02312       -2.3480753E-17
   59.14991       -4.0363800E-17
   59.27670       -5.8057074E-17
   59.40350       -7.5890122E-17
   59.53029       -9.3089119E-17
   59.65708       -1.0879745E-16
   59.78387       -1.2210308E-16
   59.91067       -1.3207202E-16
   60.03746       -1.3778762E-16
   60.16425       -1.3839424E-16
   60.29105       -1.3314409E-16
   60.41784       -1.2144553E-16
   60.54463       -1.0291066E-16
   60.67142       -7.7399952E-17
   60.79822       -4.5061733E-17
   60.92501       -6.3636940E-18
   61.05180        3.7885683E-17
   61.17859        8.6528333E-17
   61.30539        1.3806210E-16
   61.43218        1.9066251E-16
   61.55897        2.4222135E-16
   61.68576        2.9040302E-16
   61.81256        3.3271745E-16
   61.93935        3.6660952E-16
   62.06614        3.8956176E-16
   62.19294        3.9920845E-16
   62.31973        3.9345670E-16
   62.44652        3.7061005E-16
   62.57331        3.2948999E-16
   62.70011        2.6954904E-16
   62.82690        1.9096992E-16
   62.95369        9.4744645E-17
   63.08048       -1.7272142E-17
   63.20728       -1.4234105E-16
   63.33407       -2.7685124E-16
   63.46086       -4.1637307E-16
   63.58765       -5.5575155E-16
   63.71445       -6.8924156E-16
   63.84124       -8.1068359E-16
   63.96803       -9.1371657E-16
   64.09483       -9.9202275E-16
   64.22162       -1.0395978E-15
   64.34841       -1.0510366E-15
   64.47520       -1.0218245E-15
   64.60200       -9.4862290E-16
   64.72879       -8.2953420E-16
   64.85558       -6.6433514E-16
   64.98238       -4.5466330E-16
   65.10917       -2.0414528E-16
   65.23596        8.1546211E-17
   65.36275        3.9471386E-16
   65.48955        7.2574588E-16
   65.61633        1.0633160E-15
   65.74313        1.3946759E-15
   65.86992        1.7060349E-15
   65.99671        1.9830231E-15
   66.12350        2.2112200E-15
   66.25030        2.3767408E-15
   66.37709        2.4668541E-15
   66.50388        2.4706128E-15
   66.63068        2.3794689E-15
   66.75747        2.1878490E-15
   66.88426        1.8936614E-15
   67.01105        1.4987026E-15
   67.13785        1.0089454E-15
   67.26464        4.3467920E-16
   67.39143       -2.0951508E-16
   67.51823       -9.0496778E-16
   67.64502       -1.6293103E-15
   67.77181       -2.3570498E-15
   67.89861       -3.0603239E-15
   68.02540       -3.7098175E-15
   68.15219       -4.2758185E-15
   68.27898       -4.7293784E-15
   68.40578       -5.0435421E-15
   68.53257       -5.1945964E-15
   68.65936       -5.1632935E-15
   68.78616       -4.9359884E-15
   68.91295       -4.5056431E-15
   69.03974       -3.8726384E-15
   69.16653       -3.0453509E-15
   69.29333       -2.0404448E-15
   69.42011       -8.8284947E-16
   69.54691        3.9460507E-16
   69.67370        1.7519058E-15
   69.80049        3.1429225E-15
   69.92728        4.5168083E-15
   70.05408        5.8197004E-15
   70.18087        6.9966709E-15
   70.30766        7.9938717E-15
   70.43446        8.7607906E-15
   70.56125        9.2525364E-15
   70.68804        9.4320541E-15
   70.81483        9.2721842E-15
   70.94163        8.7574542E-15
   71.06842        7.8855117E-15
   71.19521        6.6681140E-15
   71.32201        5.1316026E-15
   71.44880        3.3167921E-15
   71.57559        1.2782516E-15
   71.70238       -9.1704604E-16
   71.82918       -3.1916913E-15
   71.95597       -5.4603733E-15
   72.08276       -7.6329383E-15
   72.20956       -9.6178541E-15
   72.33635       -1.1325971E-14
   72.46314       -1.2674441E-14
   72.58994       -1.3590630E-14
   72.71673       -1.4015863E-14
   72.84352       -1.3908815E-14
   72.97031       -1.3248388E-14
   73.09711       -1.2035904E-14
   73.22389       -1.0296467E-14
   73.35069       -8.0793907E-15
   73.47748       -5.4575781E-15
   73.60427       -2.5258270E-15
   73.73106        6.0194984E-16
   73.85786        3.7965541E-15
   73.98465        6.9182674E-15
   74.11144        9.8224499E-15
   74.23824        1.2365742E-14
   74.36503        1.4412669E-14
   74.49182        1.5842371E-14
   74.61861        1.6555184E-14
   74.74541        1.6478741E-14
   74.87220        1.5573307E-14
   74.99899        1.3836049E-14
   75.12579        1.1303942E-14
   75.25258        8.0551105E-15
   75.37937        4.2083803E-15
   75.50616       -7.9044122E-17
   75.63296       -4.6158565E-15
   75.75975       -9.1828036E-15
   75.88654       -1.3540686E-14
   76.01334       -1.7439876E-14
   76.14013       -2.0631170E-14
   76.26692       -2.2877523E-14
   76.39371       -2.3966292E-14
   76.52051       -2.3721381E-14
   76.64730       -2.2014896E-14
   76.77409       -1.8777590E-14
   76.90089       -1.4007647E-14
   77.02767       -7.7772380E-15
   77.15446       -2.3636012E-16
   77.28126        8.3864131E-15
   77.40805        1.7786630E-14
   77.53484        2.7590225E-14
   77.66164        3.7363453E-14
   77.78843        4.6626348E-14
   77.91522        5.4869453E-14
   78.04202        6.1573386E-14
   78.16881        6.6230685E-14
   78.29560        6.8369186E-14
   78.42239        6.7576078E-14
   78.54919        6.3521704E-14
   78.67598        5.5982078E-14
   78.80277        4.4859058E-14
   78.92957        3.0197141E-14
   79.05636        1.2195954E-14
   79.18315       -8.7825933E-15
   79.30994       -3.2213110E-14
   79.43674       -5.7412069E-14
   79.56353       -8.3550144E-14
   79.69032       -1.0967146E-13
   79.81712       -1.3471978E-13
   79.94391       -1.5757095E-13
   80.07070       -1.7707107E-13
   80.19749       -1.9207913E-13
   80.32429       -2.0151293E-13
   80.45108       -2.0439686E-13
   80.57787       -1.9990942E-13
   80.70466       -1.8742924E-13
   80.83145       -1.6657700E-13
   80.95824       -1.3725190E-13
   81.08504       -9.9660501E-14
   81.21183       -5.4336232E-14
   81.33862       -2.1483729E-15
   81.46542        5.5700978E-14
   81.59221        1.1769256E-13
   81.71900        1.8201867E-13
   81.84579        2.4662477E-13
   81.97259        3.0926363E-13
   82.09938        3.6756047E-13
   82.22617        4.1908802E-13
   82.35297        4.6144913E-13
   82.47976        4.9236429E-13
   82.60655        5.0976183E-13
   82.73335        5.1186681E-13
   82.86014        4.9728597E-13
   82.98693        4.6508554E-13
   83.11372        4.1485722E-13
   83.24052        3.4677155E-13
   83.36731        2.6161354E-13
   83.49410        1.6079979E-13
   83.62090        4.6374481E-14
   83.74769       -7.9016526E-14
   83.87448       -2.1217434E-13
   84.00127       -3.4941752E-13
   84.12807       -4.8667358E-13
   84.25486       -6.1958977E-13
   84.38165       -7.4365980E-13
   84.50844       -8.5436345E-13
   84.63523       -9.4731449E-13
   84.76202       -1.0184131E-12
   84.88882       -1.0639964E-12
   85.01561       -1.0809831E-12
   85.14240       -1.0670062E-12
   85.26920       -1.0205294E-12
   85.39599       -9.4094047E-13
   85.52278       -8.2862048E-13
   85.64957       -6.8498240E-13
   85.77637       -5.1247759E-13
   85.90316       -3.1456890E-13
   86.02995       -9.5669166E-14
   86.15675        1.3895386E-13
   86.28354        3.8330496E-13
   86.41033        6.3081712E-13
   86.53712        8.7453243E-13
   86.66392        1.1073023E-12
   86.79071        1.3220013E-12
   86.91750        1.5117472E-12
   87.04430        1.6701216E-12
   87.17109        1.7913811E-12
   87.29788        1.8706547E-12
   87.42467        1.9041173E-12
   87.55147        1.8891358E-12
   87.67826        1.8243788E-12
   87.80505        1.7098888E-12
   87.93185        1.5471110E-12
   88.05864        1.3388773E-12
   88.18543        1.0893461E-12
   88.31222        8.0389834E-13
   88.43901        4.8899312E-13
   88.56580        1.5198627E-13
   88.69260       -1.9908063E-13
   88.81939       -5.5571493E-13
   88.94618       -9.0922316E-13
   89.07298       -1.2509681E-12
   89.19977       -1.5726222E-12
   89.32656       -1.8664109E-12
   89.45335       -2.1253338E-12
   89.58015       -2.3433577E-12
   89.70694       -2.5155746E-12
   89.83373       -2.6383149E-12
   89.96053       -2.7092187E-12
   90.08732       -2.7272542E-12
   90.21411       -2.6926905E-12
   90.34090       -2.6070214E-12
   90.46770       -2.4728468E-12
   90.59449       -2.2937136E-12
   90.72128       -2.0739281E-12
   90.84808       -1.8183456E-12
   90.97487       -1.5321477E-12
   91.10166       -1.2206192E-12
   91.22845       -8.8893498E-13
   91.35525       -5.4196692E-13
   91.48204       -1.8412280E-13
   91.60883        1.8077506E-13
   91.73563        5.4956278E-13
   91.86242        9.1975483E-13
   91.98921        1.2895077E-12
   92.11600        1.6575277E-12
   92.24279        2.0229241E-12
   92.36958        2.3850138E-12
   92.49638        2.7430868E-12
   92.62317        3.0961418E-12
   92.74996        3.4426049E-12
   92.87675        3.7800535E-12
   93.00355        4.1049482E-12
   93.13034        4.4124053E-12
   93.25713        4.6960153E-12
   93.38393        4.9477354E-12
   93.51072        5.1578555E-12
   93.63751        5.3150678E-12
   93.76431        5.4066356E-12
   93.89110        5.4186729E-12
   94.01789        5.3365355E-12
   94.14468        5.1453178E-12
   94.27148        4.8304511E-12
   94.39827        4.3783835E-12
   94.52506        3.7773248E-12
   94.65186        3.0180350E-12
   94.77865        2.0946261E-12
   94.90544        1.0053439E-12
   95.03223       -2.4669714E-13
   95.15903       -1.6528721E-12
   95.28582       -3.1985196E-12
   95.41261       -4.8625769E-12
   95.53941       -6.6173959E-12
   95.66620       -8.4287828E-12
   95.79299       -1.0256260E-11
   95.91978       -1.2053598E-11
   96.04657       -1.3769581E-11
   96.17336       -1.5349059E-11
   96.30016       -1.6734213E-11
   96.42695       -1.7866077E-11
   96.55374       -1.8686228E-11
   96.68053       -1.9138649E-11
   96.80733       -1.9171689E-11
   96.93412       -1.8740075E-11
   97.06091       -1.7806917E-11
   97.18771       -1.6345630E-11
   97.31450       -1.4341700E-11
   97.44129       -1.1794252E-11
   97.56808       -8.7173194E-12
   97.69488       -5.1407611E-12
   97.82167       -1.1107846E-12
   97.94846        3.3099877E-12
   98.07526        8.0429396E-12
   98.20205        1.2994385E-11
   98.32884        1.8057019E-11
   98.45564        2.3111868E-11
   98.58243        2.8030718E-11
   98.70922        3.2679002E-11
   98.83601        3.6919041E-11
   98.96281        4.0613617E-11
   99.08960        4.3629739E-11
   99.21639        4.5842566E-11
   99.34319        4.7139289E-11
   99.46998        4.7422961E-11
   99.59677        4.6616062E-11
   99.72356        4.4663759E-11
   99.85035        4.1536684E-11
   99.97714        3.7233189E-11
   100.1039        3.1780929E-11
   100.2307        2.5237736E-11
   100.3575        1.7691720E-11
   100.4843        9.2605394E-12
   100.6111        8.9853878E-14
   100.7379       -9.6490455E-12
   100.8647       -1.9762379E-11
   100.9915       -3.0037760E-11
   101.1183       -4.0248686E-11
   101.2451       -5.0159620E-11
   101.3719       -5.9531408E-11
   101.4987       -6.8127018E-11
   101.6255       -7.5717418E-11
   101.7522       -8.2087344E-11
   101.8790       -8.7040951E-11
   102.0058       -9.0407078E-11
   102.1326       -9.2043984E-11
   102.2594       -9.1843519E-11
   102.3862       -8.9734456E-11
   102.5130       -8.5685035E-11
   102.6398       -7.9704507E-11
   102.7666       -7.1843753E-11
   102.8934       -6.2194888E-11
   103.0202       -5.0889834E-11
   103.1470       -3.8098014E-11
   103.2738       -2.4023084E-11
   103.4006       -8.8989129E-12
   103.5273        7.0151198E-12
   103.6541        2.3439419E-11
   103.7809        4.0079801E-11
   103.9077        5.6633441E-11
   104.0345        7.2794860E-11
   104.1613        8.8261849E-11
   104.2881        1.0274124E-10
   104.4149        1.1595415E-10
   104.5417        1.2764101E-10
   104.6685        1.3756574E-10
   104.7953        1.4551949E-10
   104.9221        1.5132352E-10
   105.0489        1.5483151E-10
   105.1756        1.5593096E-10
   105.3024        1.5454406E-10
   105.4292        1.5062782E-10
   105.5560        1.4417373E-10
   105.6828        1.3520685E-10
   105.8096        1.2378461E-10
   105.9364        1.0999528E-10
   106.0632        9.3956364E-11
   106.1900        7.5812870E-11
   106.3168        5.5735694E-11
   106.4436        3.3920068E-11
   106.5704        1.0584270E-11
   106.6972       -1.4031562E-11
   106.8240       -3.9666329E-11
   106.9507       -6.6038640E-11
   107.0775       -9.2847403E-11
   107.2043       -1.1977237E-10
   107.3311       -1.4647460E-10
   107.4579       -1.7259709E-10
   107.5847       -1.9776586E-10
   107.7115       -2.2159118E-10
   107.8383       -2.4366967E-10
   107.9651       -2.6358682E-10
   108.0919       -2.8092059E-10
   108.2187       -2.9524574E-10
   108.3455       -3.0613925E-10
   108.4723       -3.1318684E-10
   108.5990       -3.1599046E-10
   108.7258       -3.1417668E-10
   108.8526       -3.0740610E-10
   108.9794       -2.9538341E-10
   109.1062       -2.7786803E-10
   109.2330       -2.5468500E-10
   109.3598       -2.2573579E-10
   109.4866       -1.9100896E-10
   109.6134       -1.5059010E-10
   109.7402       -1.0467057E-10
   109.8670       -5.3555192E-11
   109.9938        2.3322555E-12
   110.1206        6.2445146E-11
   110.2474        1.2611287E-10
   110.3741        1.9254237E-10
   110.5009        2.6082222E-10
   110.6277        3.2993006E-10