  -4.500000        1.6785646E-18
  -4.373208        1.6785765E-18
  -4.246415        1.6785994E-18
  -4.119622        1.6786311E-18
  -3.992829        1.6786682E-18
  -3.866037        1.6787067E-18
  -3.739244        1.6787441E-18
  -3.612452        1.6787763E-18
  -3.485659        1.6788015E-18
  -3.358866        1.6788192E-18
  -3.232074        1.6788295E-18
  -3.105281        1.6788333E-18
  -2.978488        1.6788336E-18
  -2.851696        1.6788324E-18
  -2.724903        1.6788334E-18
  -2.598110        1.6788386E-18
  -2.471318        1.6788509E-18
  -2.344525        1.6788712E-18
  -2.217732        1.6788993E-18
  -2.090940        1.6789341E-18
  -1.964147        1.6789746E-18
  -1.837354        1.6790176E-18
  -1.710562        1.6790599E-18
  -1.583769        1.6790991E-18
  -1.456976        1.6791317E-18
  -1.330184        1.6791559E-18
  -1.203391        1.6791713E-18
  -1.076598        1.6791784E-18
 -0.9498057        1.6791775E-18
 -0.8230131        1.6791718E-18
 -0.6962205        1.6791640E-18
 -0.5694278        1.6791576E-18
 -0.4426351        1.6791548E-18
 -0.3158425        1.6791582E-18
 -0.1890498        1.6791692E-18
 -6.2257171E-02    1.6791881E-18
  6.4535484E-02    1.6792141E-18
  0.1913281        1.6792459E-18
  0.3181208        1.6792817E-18
  0.4449134        1.6793182E-18
  0.5717061        1.6793532E-18
  0.6984987        1.6793843E-18
  0.8252914        1.6794096E-18
  0.9520841        1.6794281E-18
   1.078877        1.6794398E-18
   1.205669        1.6794455E-18
   1.332462        1.6794464E-18
   1.459255        1.6794454E-18
   1.586047        1.6794448E-18
   1.712840        1.6794464E-18
   1.839633        1.6794528E-18
   1.966425        1.6794656E-18
   2.093218        1.6794848E-18
   2.220011        1.6795106E-18
   2.346803        1.6795418E-18
   2.473596        1.6795769E-18
   2.600389        1.6796131E-18
   2.727181        1.6796481E-18
   2.853974        1.6796808E-18
   2.980767        1.6797088E-18
   3.107559        1.6797306E-18
   3.234352        1.6797453E-18
   3.361145        1.6797531E-18
   3.487937        1.6797555E-18
   3.614730        1.6797540E-18
   3.741522        1.6797511E-18
   3.868315        1.6797485E-18
   3.995108        1.6797486E-18
   4.121901        1.6797533E-18
   4.248693        1.6797630E-18
   4.375485        1.6797793E-18
   4.502278        1.6798005E-18
   4.629071        1.6798269E-18
   4.755864        1.6798559E-18
   4.882656        1.6798853E-18
   5.009449        1.6799120E-18
   5.136241        1.6799350E-18
   5.263034        1.6799511E-18
   5.389827        1.6799603E-18
   5.516620        1.6799623E-18
   5.643412        1.6799578E-18
   5.770205        1.6799477E-18
   5.896997        1.6799340E-18
   6.023790        1.6799200E-18
   6.150583        1.6799071E-18
   6.277375        1.6798978E-18
   6.404168        1.6798936E-18
   6.530961        1.6798946E-18
   6.657753        1.6799019E-18
   6.784546        1.6799137E-18
   6.911339        1.6799283E-18
   7.038131        1.6799444E-18
   7.164924        1.6799596E-18
   7.291717        1.6799719E-18
   7.418509        1.6799800E-18
   7.545302        1.6799837E-18
   7.672095        1.6799816E-18
   7.798887        1.6799748E-18
   7.925680        1.6799643E-18
   8.052472        1.6799516E-18
   8.179265        1.6799384E-18
   8.306058        1.6799274E-18
   8.432851        1.6799203E-18
   8.559643        1.6799175E-18
   8.686436        1.6799204E-18
   8.813229        1.6799280E-18
   8.940022        1.6799401E-18
   9.066813        1.6799555E-18
   9.193606        1.6799723E-18
   9.320399        1.6799881E-18
   9.447192        1.6800018E-18
   9.573984        1.6800120E-18
   9.700777        1.6800181E-18
   9.827570        1.6800196E-18
   9.954362        1.6800169E-18
   10.08115        1.6800099E-18
   10.20795        1.6800004E-18
   10.33474        1.6799902E-18
   10.46153        1.6799810E-18
   10.58833        1.6799750E-18
   10.71512        1.6799728E-18
   10.84191        1.6799771E-18
   10.96870        1.6799865E-18
   11.09550        1.6800007E-18
   11.22229        1.6800193E-18
   11.34908        1.6800397E-18
   11.47587        1.6800603E-18
   11.60267        1.6800787E-18
   11.72946        1.6800944E-18
   11.85625        1.6801060E-18
   11.98304        1.6801123E-18
   12.10984        1.6801135E-18
   12.23663        1.6801100E-18
   12.36342        1.6801031E-18
   12.49022        1.6800938E-18
   12.61701        1.6800836E-18
   12.74380        1.6800741E-18
   12.87059        1.6800663E-18
   12.99739        1.6800621E-18
   13.12418        1.6800616E-18
   13.25097        1.6800646E-18
   13.37776        1.6800710E-18
   13.50456        1.6800803E-18
   13.63135        1.6800915E-18
   13.75814        1.6801029E-18
   13.88493        1.6801134E-18
   14.01173        1.6801210E-18
   14.13852        1.6801247E-18
   14.26531        1.6801236E-18
   14.39211        1.6801164E-18
   14.51890        1.6801040E-18
   14.64569        1.6800871E-18
   14.77248        1.6800672E-18
   14.89928        1.6800459E-18
   15.02607        1.6800256E-18
   15.15286        1.6800084E-18
   15.27965        1.6799972E-18
   15.40645        1.6799929E-18
   15.53324        1.6799959E-18
   15.66003        1.6800055E-18
   15.78682        1.6800201E-18
   15.91362        1.6800374E-18
   16.04041        1.6800539E-18
   16.16720        1.6800670E-18
   16.29399        1.6800737E-18
   16.42079        1.6800726E-18
   16.54758        1.6800632E-18
   16.67437        1.6800457E-18
   16.80116        1.6800221E-18
   16.92796        1.6799948E-18
   17.05475        1.6799670E-18
   17.18154        1.6799425E-18
   17.30834        1.6799234E-18
   17.43513        1.6799125E-18
   17.56192        1.6799107E-18
   17.68871        1.6799182E-18
   17.81551        1.6799327E-18
   17.94230        1.6799522E-18
   18.06909        1.6799743E-18
   18.19588        1.6799946E-18
   18.32268        1.6800103E-18
   18.44947        1.6800192E-18
   18.57626        1.6800195E-18
   18.70305        1.6800114E-18
   18.82985        1.6799969E-18
   18.95664        1.6799778E-18
   19.08343        1.6799563E-18
   19.21023        1.6799361E-18
   19.33702        1.6799193E-18
   19.46381        1.6799084E-18
   19.59060        1.6799054E-18
   19.71740        1.6799101E-18
   19.84419        1.6799220E-18
   19.97098        1.6799403E-18
   20.09777        1.6799622E-18
   20.22457        1.6799855E-18
   20.35136        1.6800073E-18
   20.47815        1.6800252E-18
   20.60494        1.6800374E-18
   20.73174        1.6800428E-18
   20.85853        1.6800409E-18
   20.98532        1.6800327E-18
   21.11212        1.6800200E-18
   21.23891        1.6800052E-18
   21.36570        1.6799911E-18
   21.49249        1.6799804E-18
   21.61929        1.6799746E-18
   21.74608        1.6799766E-18
   21.87287        1.6799871E-18
   21.99966        1.6800045E-18
   22.12646        1.6800283E-18
   22.25325        1.6800548E-18
   22.38004        1.6800819E-18
   22.50683        1.6801051E-18
   22.63363        1.6801213E-18
   22.76042        1.6801295E-18
   22.88721        1.6801280E-18
   23.01401        1.6801173E-18
   23.14080        1.6800991E-18
   23.26759        1.6800761E-18
   23.39438        1.6800522E-18
   23.52118        1.6800302E-18
   23.64797        1.6800133E-18
   23.77476        1.6800050E-18
   23.90155        1.6800059E-18
   24.02835        1.6800160E-18
   24.15514        1.6800345E-18
   24.28193        1.6800582E-18
   24.40872        1.6800836E-18
   24.53552        1.6801073E-18
   24.66231        1.6801265E-18
   24.78910        1.6801383E-18
   24.91590        1.6801410E-18
   25.04269        1.6801340E-18
   25.16948        1.6801189E-18
   25.29627        1.6800983E-18
   25.42307        1.6800749E-18
   25.54986        1.6800525E-18
   25.67665        1.6800338E-18
   25.80344        1.6800212E-18
   25.93024        1.6800159E-18
   26.05703        1.6800180E-18
   26.18382        1.6800271E-18
   26.31061        1.6800409E-18
   26.43741        1.6800569E-18
   26.56420        1.6800727E-18
   26.69099        1.6800860E-18
   26.81779        1.6800939E-18
   26.94458        1.6800964E-18
   27.07137        1.6800917E-18
   27.19816        1.6800806E-18
   27.32495        1.6800640E-18
   27.45175        1.6800438E-18
   27.57854        1.6800233E-18
   27.70533        1.6800041E-18
   27.83213        1.6799885E-18
   27.95892        1.6799786E-18
   28.08571        1.6799748E-18
   28.21250        1.6799768E-18
   28.33930        1.6799846E-18
   28.46609        1.6799959E-18
   28.59288        1.6800092E-18
   28.71968        1.6800232E-18
   28.84647        1.6800355E-18
   28.97326        1.6800446E-18
   29.10005        1.6800490E-18
   29.22684        1.6800487E-18
   29.35364        1.6800438E-18
   29.48043        1.6800338E-18
   29.60722        1.6800207E-18
   29.73402        1.6800054E-18
   29.86081        1.6799889E-18
   29.98760        1.6799737E-18
   30.11439        1.6799604E-18
   30.24119        1.6799503E-18
   30.36798        1.6799432E-18
   30.49477        1.6799399E-18
   30.62156        1.6799393E-18
   30.74836        1.6799409E-18
   30.87515        1.6799432E-18
   31.00194        1.6799444E-18
   31.12873        1.6799447E-18
   31.25553        1.6799419E-18
   31.38232        1.6799359E-18
   31.50911        1.6799271E-18
   31.63591        1.6799146E-18
   31.76270        1.6798994E-18
   31.88949        1.6798842E-18
   32.01628        1.6798689E-18
   32.14308        1.6798562E-18
   32.26987        1.6798461E-18
   32.39666        1.6798414E-18
   32.52345        1.6798416E-18
   32.65025        1.6798471E-18
   32.77704        1.6798571E-18
   32.90383        1.6798711E-18
   33.03062        1.6798884E-18
   33.15742        1.6799075E-18
   33.28421        1.6799272E-18
   33.41100        1.6799461E-18
   33.53780        1.6799636E-18
   33.66459        1.6799804E-18
   33.79138        1.6799957E-18
   33.91817        1.6800096E-18
   34.04497        1.6800223E-18
   34.17176        1.6800347E-18
   34.29855        1.6800469E-18
   34.42534        1.6800597E-18
   34.55214        1.6800724E-18
   34.67893        1.6800851E-18
   34.80572        1.6800976E-18
   34.93251        1.6801099E-18
   35.05931        1.6801211E-18
   35.18610        1.6801303E-18
   35.31289        1.6801374E-18
   35.43969        1.6801415E-18
   35.56648        1.6801432E-18
   35.69327        1.6801412E-18
   35.82006        1.6801358E-18
   35.94686        1.6801259E-18
   36.07365        1.6801106E-18
   36.20044        1.6800900E-18
   36.32723        1.6800627E-18
   36.45403        1.6800289E-18
   36.58082        1.6799903E-18
   36.70761        1.6799467E-18
   36.83440        1.6799004E-18
   36.96120        1.6798534E-18
   37.08799        1.6798077E-18
   37.21478        1.6797664E-18
   37.34158        1.6797322E-18
   37.46837        1.6797068E-18
   37.59516        1.6796924E-18
   37.72195        1.6796909E-18
   37.84875        1.6797035E-18
   37.97554        1.6797317E-18
   38.10233        1.6797778E-18
   38.22912        1.6798434E-18
   38.35592        1.6799306E-18
   38.48271        1.6800420E-18
   38.60950        1.6801796E-18
   38.73629        1.6803464E-18
   38.86309        1.6805431E-18
   38.98988        1.6807708E-18
   39.11667        1.6810288E-18
   39.24347        1.6813151E-18
   39.37026        1.6816265E-18
   39.49705        1.6819576E-18
   39.62384        1.6823010E-18
   39.75064        1.6826489E-18
   39.87743        1.6829924E-18
   40.00422        1.6833217E-18
   40.13101        1.6836280E-18
   40.25780        1.6839036E-18
   40.38460        1.6841407E-18
   40.51139        1.6843358E-18
   40.63818        1.6844853E-18
   40.76498        1.6845912E-18
   40.89177        1.6846579E-18
   41.01856        1.6846949E-18
   41.14536        1.6847160E-18
   41.27215        1.6847407E-18
   41.39894        1.6847942E-18
   41.52573        1.6849069E-18
   41.65253        1.6851125E-18
   41.77932        1.6854501E-18
   41.90611        1.6859591E-18
   42.03290        1.6866811E-18
   42.15969        1.6876546E-18
   42.28649        1.6889131E-18
   42.41328        1.6904830E-18
   42.54007        1.6923783E-18
   42.66687        1.6945996E-18
   42.79366        1.6971327E-18
   42.92045        1.6999413E-18
   43.04725        1.7029690E-18
   43.17404        1.7061387E-18
   43.30083        1.7093492E-18
   43.42762        1.7124798E-18
   43.55442        1.7153900E-18
   43.68121        1.7179249E-18
   43.80800        1.7199189E-18
   43.93479        1.7212032E-18
   44.06158        1.7216134E-18
   44.18838        1.7210000E-18
   44.31517        1.7192374E-18
   44.44196        1.7162367E-18
   44.56876        1.7119570E-18
   44.69555        1.7064186E-18
   44.82234        1.6997118E-18
   44.94913        1.6920102E-18
   45.07593        1.6835736E-18
   45.20272        1.6747542E-18
   45.32951        1.6659975E-18
   45.45631        1.6578333E-18
   45.58310        1.6508668E-18
   45.70989        1.6457595E-18
   45.83668        1.6432046E-18
   45.96347        1.6438966E-18
   46.09027        1.6484930E-18
   46.21706        1.6575728E-18
   46.34385        1.6715912E-18
   46.47065        1.6908303E-18
   46.59744        1.7153514E-18
   46.72423        1.7449516E-18
   46.85102        1.7791216E-18
   46.97782        1.8170180E-18
   47.10461        1.8574434E-18
   47.23140        1.8988411E-18
   47.35820        1.9393115E-18
   47.48499        1.9766471E-18
   47.61178        2.0083892E-18
   47.73857        2.0319080E-18
   47.86536        2.0445096E-18
   47.99216        2.0435634E-18
   48.11895        2.0266473E-18
   48.24574        1.9917146E-18
   48.37254        1.9372692E-18
   48.49933        1.8625407E-18
   48.62612        1.7676608E-18
   48.75291        1.6538186E-18
   48.87971        1.5233920E-18
   49.00650        1.3800424E-18
   49.13329        1.2287568E-18
   49.26009        1.0758275E-18
   49.38688        9.2876677E-19
   49.51367        7.9613668E-19
   49.64046        6.8729636E-19
   49.76725        6.1206878E-19
   49.89405        5.8031745E-19
   50.02084        6.0145254E-19
   50.14763        6.8387178E-19
   50.27443        8.3435889E-19
   50.40122        1.0574598E-18
   50.52801        1.3548663E-18
   50.65480        1.7248366E-18
   50.78160        2.1617013E-18
   50.90839        2.6554717E-18
   51.03518        3.1916121E-18
   51.16198        3.7509990E-18
   51.28877        4.3101040E-18
   51.41556        4.8414315E-18
   51.54235        5.3142268E-18
   51.66914        5.6954706E-18
   51.79594        5.9511406E-18
   51.92273        6.0477379E-18
   52.04952        5.9540353E-18
   52.17632        5.6429914E-18
   52.30311        5.0937732E-18
   52.42990        4.2937879E-18
   52.55669        3.2406349E-18
   52.68349        1.9438664E-18
   52.81028        4.2642913E-19
   52.93707       -1.2743198E-18
   53.06387       -3.1061558E-18
   53.19066       -5.0021833E-18
   53.31745       -6.8817891E-18
   53.44424       -8.6524143E-18
   53.57103       -1.0212183E-17
   53.69783       -1.1453404E-17
   53.82462       -1.2266873E-17
   53.95141       -1.2546920E-17
   54.07821       -1.2197044E-17
   54.20500       -1.1135956E-17
   54.33179       -9.3037867E-18
   54.45858       -6.6681920E-18
   54.58538       -3.2300315E-18
   54.71217        9.7170271E-19
   54.83896        5.8560851E-18
   54.96576        1.1297892E-17
   55.09255        1.7127033E-17
   55.21934        2.3130044E-17
   55.34613        2.9053869E-17
   55.47292        3.4612079E-17
   55.59972        3.9493556E-17
   55.72651        4.3373609E-17
   55.85330        4.5927294E-17
   55.98009        4.6844644E-17
   56.10689        4.5847286E-17
   56.23368        4.2705935E-17
   56.36047        3.7257982E-17
   56.48727        2.9424333E-17
   56.61406        1.9224720E-17
   56.74085        6.7903910E-18
   56.86765       -7.6266541E-18
   56.99444       -2.3648832E-17
   57.12123       -4.0773383E-17
   57.24802       -5.8378622E-17
   57.37481       -7.5736584E-17
   57.50161       -9.2032280E-17
   57.62840       -1.0638952E-16
   57.75519       -1.1790295E-16
   57.88198       -1.2567560E-16
   58.00878       -1.2886096E-16
   58.13557       -1.2670811E-16
   58.26236       -1.1860829E-16
   58.38916       -1.0414081E-16
   58.51595       -8.3116233E-17
   58.64274       -5.5614364E-17
   58.76954       -2.2014727E-17
   58.89633        1.6982814E-17
   59.02312        6.0349542E-17
   59.14991        1.0673325E-16
   59.27670        1.5447893E-16
   59.40350        2.0166583E-16
   59.53029        2.4616085E-16
   59.65708        2.8568828E-16
   59.78387        3.1791404E-16
   59.91067        3.4054279E-16
   60.03746        3.5142471E-16
   60.16425        3.4866830E-16
   60.29105        3.3075496E-16
   60.41784        2.9664986E-16
   60.54463        2.4590423E-16
   60.67142        1.7874317E-16
   60.79822        9.6133204E-17
   60.92501       -1.7541860E-19
   61.05180       -1.0763656E-16
   61.17859       -2.2293031E-16
   61.30539       -3.4202161E-16
   61.43218       -4.6025748E-16
   61.55897       -5.7250226E-16
   61.68576       -6.7330919E-16
   61.81256       -7.5712395E-16
   61.93935       -8.1851568E-16
   62.06614       -8.5242685E-16
   62.19294       -8.5443374E-16
   62.31973       -8.2100632E-16
   62.44652       -7.4975656E-16
   62.57331       -6.3966213E-16
   62.70011       -4.9125354E-16
   62.82690       -3.0675298E-16
   62.95369       -9.0152132E-17
   63.08048        1.5277845E-16
   63.20728        4.1455804E-16
   63.33407        6.8614502E-16
   63.46086        9.5717063E-16
   63.58765        1.2162533E-15
   63.71445        1.4513881E-15
   63.84124        1.6504027E-15
   63.96803        1.8014642E-15
   64.09483        1.8936211E-15
   64.22162        1.9173584E-15
   64.34841        1.8651439E-15
   64.47520        1.7319407E-15
   64.60200        1.5156576E-15
   64.72879        1.2175172E-15
   64.85558        8.4231074E-16
   64.98238        3.9852283E-16
   65.10917       -1.0169182E-16
   65.23596       -6.4269520E-16
   65.36275       -1.2057190E-15
   65.48955       -1.7693885E-15
   65.61633       -2.3104045E-15
   65.74313       -2.8043704E-15
   65.86992       -3.2267413E-15
   65.99671       -3.5538631E-15
   66.12350       -3.7640641E-15
   66.25030       -3.8387563E-15
   66.37709       -3.7634987E-15
   66.50388       -3.5289709E-15
   66.63068       -3.1318107E-15
   66.75747       -2.5752599E-15
   66.88426       -1.8695817E-15
   67.01105       -1.0322059E-15
   67.13785       -8.7572758E-17
   67.26464        9.3333830E-16
   67.39143        1.9938084E-15
   67.51823        3.0524927E-15
   67.64502        4.0648315E-15
   67.77181        4.9847156E-15
   67.89861        5.7663576E-15
   68.02540        6.3663013E-15
   68.15219        6.7454976E-15
   68.27898        6.8713523E-15
   68.40578        6.7196564E-15
   68.53257        6.2763109E-15
   68.65936        5.5387404E-15
   68.78616        4.5169214E-15
   68.91295        3.2339345E-15
   69.03974        1.7259895E-15
   69.16653        4.1871628E-17
   69.29333       -1.7582088E-15
   69.42011       -3.6043649E-15
   69.54691       -5.4193469E-15
   69.67370       -7.1213719E-15
   69.80049       -8.6273728E-15
   69.92728       -9.8565700E-15
   70.05408       -1.0734230E-14
   70.18087       -1.1195453E-14
   70.30766       -1.1188839E-14
   70.43446       -1.0679845E-14
   70.56125       -9.6536667E-15
   70.68804       -8.1174827E-15
   70.81483       -6.1019085E-15
   70.94163       -3.6615244E-15
   71.06842       -8.7439343E-16
   71.19521        2.1595012E-15
   71.32201        5.3209204E-15
   71.44880        8.4750940E-15
   71.57559        1.1476443E-14
   71.70238        1.4174173E-14
   71.82918        1.6418551E-14
   71.95597        1.8067652E-14
   72.08276        1.8994329E-14
   72.20956        1.9093134E-14
   72.33635        1.8286823E-14
   72.46314        1.6532201E-14
   72.58994        1.3824971E-14
   72.71673        1.0203285E-14
   72.84352        5.7497465E-15
   72.97031        5.9166183E-16
   73.09711       -5.1006236E-15
   73.22389       -1.1117396E-14
   73.35069       -1.7215240E-14
   73.47748       -2.3124640E-14
   73.60427       -2.8559342E-14
   73.73106       -3.3227236E-14
   73.85786       -3.6842406E-14
   73.98465       -3.9137933E-14
   74.11144       -3.9879023E-14
   74.23824       -3.8875875E-14
   74.36503       -3.5995759E-14
   74.49182       -3.1173750E-14
   74.61861       -2.4421559E-14
   74.74541       -1.5833924E-14
   74.87220       -5.5921454E-15
   74.99899        6.0356701E-15
   75.12579        1.8697859E-14
   75.25258        3.1966163E-14
   75.37937        4.5346343E-14
   75.50616        5.8292408E-14
   75.63296        7.0224086E-14
   75.75975        8.0547060E-14
   75.88654        8.8675622E-14
   76.01334        9.4056693E-14
   76.14013        9.6194652E-14
   76.26692        9.4675949E-14
   76.39371        8.9192488E-14
   76.52051        7.9562882E-14
   76.64730        6.5750533E-14
   76.77409        4.7877568E-14
   76.90089        2.6233861E-14
   77.02767        1.2803869E-15
   77.15446       -2.6353677E-14
   77.28126       -5.5880376E-14
   77.40805       -8.6369192E-14
   77.53484       -1.1676977E-13
   77.66164       -1.4594096E-13
   77.78843       -1.7268547E-13
   77.91522       -1.9578927E-13
   78.04202       -2.1406458E-13
   78.16881       -2.2639533E-13
   78.29560       -2.3178342E-13
   78.42239       -2.2939422E-13
   78.54919       -2.1859967E-13
   78.67598       -1.9901719E-13
   78.80277       -1.7054279E-13
   78.92957       -1.3337676E-13
   79.05636       -8.8040544E-14
   79.18315       -3.5383585E-14
   79.30994        2.3420727E-14
   79.43674        8.6890679E-14
   79.56353        1.5326366E-13
   79.69032        2.2053504E-13
   79.81712        2.8650837E-13
   79.94391        3.4885522E-13
   80.07070        4.0518413E-13
   80.19749        4.5311611E-13
   80.32429        4.9036507E-13
   80.45108        5.1482088E-13
   80.57787        5.2463166E-13
   80.70466        5.1828366E-13
   80.83145        4.9467526E-13
   80.95824        4.5318212E-13
   81.08504        3.9371130E-13
   81.21183        3.1674159E-13
   81.33862        2.2334813E-13
   81.46542        1.1520919E-13
   81.59221       -5.4057406E-15
   81.71900       -1.3566779E-13
   81.84579       -2.7224016E-13
   81.97259       -4.1134872E-13
   82.09938       -5.4887155E-13
   82.22617       -6.8044415E-13
   82.35297       -8.0157961E-13
   82.47976       -9.0779961E-13
   82.60655       -9.9477306E-13
   82.73335       -1.0584589E-12
   82.86014       -1.0952487E-12
   82.98693       -1.1021048E-12
   83.11372       -1.0766887E-12
   83.24052       -1.0174756E-12
   83.36731       -9.2385279E-13
   83.49410       -7.9619351E-13
   83.62090       -6.3590794E-13
   83.74769       -4.4546430E-13
   83.87448       -2.2838025E-13
   84.00127        1.0817913E-14
   84.12807        2.6666790E-13
   84.25486        5.3287642E-13
   84.38165        8.0245473E-13
   84.50844        1.0678816E-12
   84.63523        1.3212916E-12
   84.76202        1.5546836E-12
   84.88882        1.7601444E-12
   85.01561        1.9300820E-12
   85.14240        2.0574625E-12
   85.26920        2.1360426E-12
   85.39599        2.1605920E-12
   85.52278        2.1270984E-12
   85.64957        2.0329472E-12
   85.77637        1.8770714E-12
   85.90316        1.6600641E-12
   86.02995        1.3842499E-12
   86.15675        1.0537099E-12
   86.28354        6.7425796E-13
   86.41033        2.5336786E-13
   86.53712       -1.9995100E-13
   86.66392       -6.7532617E-13
   86.79071       -1.1612420E-12
   86.91750       -1.6453005E-12
   87.04430       -2.1145193E-12
   87.17109       -2.5556588E-12
   87.29788       -2.9555707E-12
   87.42467       -3.3015593E-12
   87.55147       -3.5817449E-12
   87.67826       -3.7854199E-12
   87.80505       -3.9033876E-12
   87.93185       -3.9282709E-12
   88.05864       -3.8547854E-12
   88.18543       -3.6799656E-12
   88.31222       -3.4033336E-12
   88.43901       -3.0270101E-12
   88.56580       -2.5557560E-12
   88.69260       -1.9969475E-12
   88.81939       -1.3604787E-12
   88.94618       -6.5859297E-13
   89.07298        9.4349746E-14
   89.19977        8.8217096E-13
   89.32656        1.6872254E-12
   89.45335        2.4908014E-12
   89.58015        3.2735587E-12
   89.70694        4.0159894E-12
   89.83373        4.6988958E-12
   89.96053        5.3038693E-12
   90.08732        5.8137562E-12
   90.21411        6.2130990E-12
   90.34090        6.4885419E-12
   90.46770        6.6291911E-12
   90.59449        6.6269121E-12
   90.72128        6.4765706E-12
   90.84808        6.1761958E-12
   90.97487        5.7270725E-12
   91.10166        5.1337541E-12
   91.22845        4.4040049E-12
   91.35525        3.5486635E-12
   91.48204        2.5814422E-12
   91.60883        1.5186643E-12
   91.73563        3.7894611E-13
   91.86242       -8.1716220E-13
   91.98921       -2.0475694E-12
   92.11600       -3.2890615E-12
   92.24279       -4.5177282E-12
   92.36958       -5.7093952E-12
   92.49638       -6.8400468E-12
   92.62317       -7.8862342E-12
   92.74996       -8.8254560E-12
   92.87675       -9.6365234E-12
   93.00355       -1.0299877E-11
   93.13034       -1.0797887E-11
   93.25713       -1.1115106E-11
   93.38393       -1.1238505E-11
   93.51072       -1.1157663E-11
   93.63751       -1.0864946E-11
   93.76431       -1.0355659E-11
   93.89110       -9.6281733E-12
   94.01789       -8.6840500E-12
   94.14468       -7.5281500E-12
   94.27148       -6.1687248E-12
   94.39827       -4.6175112E-12
   94.52506       -2.8897978E-12
   94.65186       -1.0044889E-12
   94.77865        1.0158674E-12
   94.90544        3.1450747E-12
   95.03223        5.3533306E-12
   95.15903        7.6073245E-12
   95.28582        9.8703988E-12
   95.41261        1.2102799E-11
   95.53941        1.4262005E-11
   95.66620        1.6303178E-11
   95.79299        1.8179713E-11
   95.91978        1.9843918E-11
   96.04657        2.1247804E-11
   96.17336        2.2344014E-11
   96.30016        2.3086847E-11
   96.42695        2.3433387E-11
   96.55374        2.3344717E-11
   96.68053        2.2787185E-11
   96.80733        2.1733707E-11
   96.93412        2.0165031E-11
   97.06091        1.8070998E-11
   97.18771        1.5451678E-11
   97.31450        1.2318389E-11
   97.44129        8.6945269E-12
   97.56808        4.6161733E-12
   97.69488        1.3244775E-13
   97.82167       -4.6944527E-12
   97.94846       -9.7895476E-12
   98.07526       -1.5065706E-11
   98.20205       -2.0424664E-11
   98.32884       -2.5758409E-11
   98.45564       -3.0950933E-11
   98.58243       -3.5880313E-11
   98.70922       -4.0421146E-11
   98.83601       -4.4447196E-11
   98.96281       -4.7834316E-11
   99.08960       -5.0463474E-11
   99.21639       -5.2223916E-11
   99.34319       -5.3016275E-11
   99.46998       -5.2755644E-11
   99.59677       -5.1374464E-11
   99.72356       -4.8825197E-11
   99.85035       -4.5082629E-11
   99.97714       -4.0145800E-11
   100.1039       -3.4039476E-11
   100.2307       -2.6815076E-11
   100.3575       -1.8551044E-11
   100.4843       -9.3526324E-12
   100.6111        6.4894233E-13
   100.7379        1.1297946E-11
   100.8647        2.2416157E-11
   100.9915        3.3805469E-11
   101.1183        4.5251018E-11
   101.2451        5.6524781E-11
   101.3719        6.7389518E-11
   101.4987        7.7603104E-11
   101.6255        8.6923031E-11
   101.7522        9.5111106E-11
   101.8790        1.0193815E-10
   102.0058        1.0718876E-10
   102.1326        1.1066584E-10
   102.2594        1.1219507E-10
   102.3862        1.1162905E-10
   102.5130        1.0885107E-10
   102.6398        1.0377861E-10
   102.7666        9.6366318E-11
   102.8934        8.6608602E-11
   103.0202        7.4541644E-11
   103.1470        6.0244955E-11
   103.2738        4.3842333E-11
   103.4006        2.5502295E-11
   103.5273        5.4379110E-12
   103.6541       -1.6093998E-11
   103.7809       -3.8794200E-11
   103.9077       -6.2323140E-11
   104.0345       -8.6303589E-11
   104.1613       -1.1032414E-10
   104.2881       -1.3394326E-10
   104.4149       -1.5669421E-10
   104.5417       -1.7809081E-10
   104.6685       -1.9763378E-10
   104.7953       -2.1481825E-10
   104.9221       -2.2914176E-10
   105.0489       -2.4011329E-10
   105.1756       -2.4726293E-10
   105.3024       -2.5015232E-10
   105.4292       -2.4838567E-10
   105.5560       -2.4162106E-10
   105.6828       -2.2958239E-10
   105.8096       -2.1207099E-10
   105.9364       -1.8897725E-10
   106.0632       -1.6029178E-10
   106.1900       -1.2611560E-10
   106.3168       -8.6669359E-11
   106.4436       -4.2300784E-11
   106.5704        6.5096240E-12
   106.6972        5.9145321E-11
   106.8240        1.1485318E-10
   106.9507        1.7274587E-10
   107.0775        2.3180792E-10
   107.2043        2.9090508E-10
   107.3311        3.4879777E-10
   107.4579        4.0415829E-10
   107.5847        4.5559212E-10
   107.7115        5.0166299E-10
   107.8383        5.4092153E-10
   107.9651        5.7193716E-10
   108.0919        5.9333305E-10
   108.2187        6.0382260E-10
   108.3455        6.0224831E-10
   108.4723        5.8762040E-10
   108.5990        5.5915550E-10
   108.7258        5.1631377E-10
   108.8526        4.5883397E-10
   108.9794        3.8676429E-10
   109.1062        3.0048888E-10
   109.2330        2.0074840E-10
   109.3598        8.8653723E-11
   109.4866       -3.4308532E-11
   109.6134       -1.6627859E-10
   109.7402       -3.0503614E-10
   109.8670       -4.4802229E-10
   109.9938       -5.9237221E-10
   110.1206       -7.3495726E-10
   110.2474       -8.7243740E-10
   110.3741       -1.0013232E-09
   110.5009       -1.1180459E-09
   110.6277       -1.2190348E-09