  -4.500000        1.0444063E-17
  -4.373208        1.0444082E-17
  -4.246415        1.0444111E-17
  -4.119622        1.0444144E-17
  -3.992829        1.0444169E-17
  -3.866037        1.0444626E-17
  -3.739244        1.0446785E-17
  -3.612452        1.0449772E-17
  -3.485659        1.0442323E-17
  -3.358866        1.0400898E-17
  -3.232074        1.0325327E-17
  -3.105281        1.0341465E-17
  -2.978488        1.0846472E-17
  -2.851696        1.2569743E-17
  -2.724903        1.6331814E-17
  -2.598110        2.2306570E-17
  -2.471318        2.8818403E-17
  -2.344525        3.1148297E-17
  -2.217732        2.1353160E-17
  -2.090940       -9.5946780E-18
  -1.964147       -6.6451224E-17
  -1.837354       -1.4179471E-16
  -1.710562       -2.0889090E-16
  -1.583769       -2.2131515E-16
  -1.456976       -1.2581892E-16
  -1.330184        1.0905710E-16
  -1.203391        4.5519381E-16
  -1.076598        7.9571175E-16
 -0.9498057        9.2892843E-16
 -0.8230131        6.2486108E-16
 -0.6962205       -2.6661323E-16
 -0.5694278       -1.6870777E-15
 -0.4426351       -3.2779231E-15
 -0.3158425       -4.3891778E-15
 -0.1890498       -4.2276100E-15
 -6.2257171E-02   -2.1318314E-15
  6.4535484E-02    2.0962575E-15
  0.1913281        7.9144539E-15
  0.3181208        1.3930971E-14
  0.4449134        1.8038166E-14
  0.5717061        1.7800181E-14
  0.6984987        1.1037075E-14
  0.8252914       -3.5056275E-15
  0.9520841       -2.5544952E-14
   1.078877       -5.2861226E-14
   1.205669       -8.1260390E-14
   1.332462       -1.0501529E-13
   1.459255       -1.1783237E-13
   1.586047       -1.1427118E-13
   1.712840       -9.1390830E-14
   1.839633       -5.0251199E-14
   1.966425        3.1766984E-15
   2.093218        5.8086585E-14
   2.220011        1.0010279E-13
   2.346803        1.1365224E-13
   2.473596        8.5066116E-14
   2.600389        5.8447827E-15
   2.727181       -1.2450554E-13
   2.853974       -2.9652119E-13
   2.980767       -4.8996609E-13
   3.107559       -6.7424500E-13
   3.234352       -8.1011104E-13
   3.361145       -8.5283706E-13
   3.487937       -7.5713399E-13
   3.614730       -4.8405019E-13
   3.741522       -9.7228659E-15
   3.868315        6.6482789E-13
   3.995108        1.5045105E-12
   4.121901        2.4338830E-12
   4.248693        3.3362247E-12
   4.375485        4.0597812E-12
   4.502278        4.4316638E-12
   4.629071        4.2781473E-12
   4.755864        3.4484611E-12
   4.882656        1.8381386E-12
   5.009449       -5.9213550E-13
   5.136241       -3.8054399E-12
   5.263034       -7.6871677E-12
   5.389827       -1.2053595E-11
   5.516620       -1.6669588E-11
   5.643412       -2.1273783E-11
   5.770205       -2.5609043E-11
   5.896997       -2.9455386E-11
   6.023790       -3.2661797E-11
   6.150583       -3.5172198E-11
   6.277375       -3.7040204E-11
   6.404168       -3.8427417E-11
   6.530961       -3.9582247E-11
   6.657753       -4.0800207E-11
   6.784546       -4.2372193E-11
   6.911339       -4.4532711E-11
   7.038131       -4.7423687E-11
   7.164924       -5.1089622E-11
   7.291717       -5.5515634E-11
   7.418509       -6.0712220E-11
   7.545302       -6.6841768E-11
   7.672095       -7.4374749E-11
   7.798887       -8.4261619E-11
   7.925680       -9.8110638E-11
   8.052472       -1.1837246E-10
   8.179265       -1.4854530E-10
   8.306058       -1.9342478E-10
   8.432851       -2.5942493E-10
   8.559643       -3.5498413E-10
   8.686436       -4.9104332E-10
   8.813229       -6.8153938E-10
   8.940022       -9.4380337E-10
   9.066813       -1.2986963E-09
   9.193606       -1.7702676E-09
   9.320399       -2.3846931E-09
   9.447192       -3.1682421E-09
   9.573984       -4.1440686E-09
   9.700777       -5.3276930E-09
   9.827570       -6.7211636E-09
   9.954362       -8.3060447E-09
   10.08115       -1.0035560E-08
   10.20795       -1.1826415E-08
   10.33474       -1.3551021E-08
   10.46153       -1.5030960E-08
   10.58833       -1.6032706E-08
   10.71512       -1.6266585E-08
   10.84191       -1.5389984E-08
   10.96870       -1.3015643E-08
   11.09550       -8.7256744E-09
   11.22229       -2.0916096E-09
   11.34908        7.2996205E-09
   11.47587        1.9814411E-08
   11.60267        3.5737141E-08
   11.72946        5.5232647E-08
   11.85625        7.8309228E-08
   11.98304        1.0478561E-07
   12.10984        1.3426605E-07
   12.23663        1.6612833E-07
   12.36342        1.9953031E-07
   12.49022        2.3344013E-07
   12.61701        2.6669633E-07
   12.74380        2.9810249E-07
   12.87059        3.2656064E-07
   12.99739        3.5124691E-07
   13.12418        3.7182991E-07
   13.25097        3.8873134E-07
   13.37776        4.0342454E-07
   13.50456        4.1876513E-07
   13.63135        4.3934463E-07
   13.75814        4.7185438E-07
   13.88493        5.2544601E-07
   14.01173        6.1207083E-07
   14.13852        7.4678155E-07
   14.26531        9.4797610E-07
   14.39211        1.2375646E-06
   14.51890        1.6410434E-06
   14.64569        2.1874578E-06
   14.77248        2.9092416E-06
   14.89928        3.8419248E-06
   15.02607        5.0237086E-06
   15.15286        6.4948945E-06
   15.27965        8.2971956E-06
   15.40645        1.0472922E-05
   15.53324        1.3064061E-05
   15.66003        1.6111286E-05
   15.78682        1.9652904E-05
   15.91362        2.3723769E-05
   16.04041        2.8354205E-05
   16.16720        3.3568947E-05
   16.29399        3.9386137E-05
   16.42079        4.5816425E-05
   16.54758        5.2862128E-05
   16.67437        6.0516562E-05
   16.80116        6.8763475E-05
   16.92796        7.7576631E-05
   17.05475        8.6919586E-05
   17.18154        9.6745571E-05
   17.30834        1.0699759E-04
   17.43513        1.1760863E-04
   17.56192        1.2850204E-04
   17.68871        1.3959210E-04
   17.81551        1.5078475E-04
   17.94230        1.6197840E-04
   18.06909        1.7306503E-04
   18.19588        1.8393132E-04
   18.32268        1.9446007E-04
   18.44947        2.0453165E-04
   18.57626        2.1402581E-04
   18.70305        2.2282347E-04
   18.82985        2.3080871E-04
   18.95664        2.3787101E-04
   19.08343        2.4390733E-04
   19.21023        2.4882460E-04
   19.33702        2.5254194E-04
   19.46381        2.5499295E-04
   19.59060        2.5612782E-04
   19.71740        2.5591539E-04
   19.84419        2.5434484E-04
   19.97098        2.5142691E-04
   20.09777        2.4719487E-04
   20.22457        2.4170479E-04
   20.35136        2.3503546E-04
   20.47815        2.2728747E-04
   20.60494        2.1858174E-04
   20.73174        2.0905754E-04
   20.85853        1.9886970E-04
   20.98532        1.8818537E-04
   21.11212        1.7718026E-04
   21.23891        1.6603469E-04
   21.36570        1.5492900E-04
   21.49249        1.4403937E-04
   21.61929        1.3353335E-04
   21.74608        1.2356577E-04
   21.87287        1.1427490E-04
   21.99966        1.0577923E-04
   22.12646        9.8174824E-05
   22.25325        9.1533424E-05
   22.38004        8.5901323E-05
   22.50683        8.1299106E-05
   22.63363        7.7722238E-05
   22.76042        7.5142496E-05
   22.88721        7.3510077E-05
   23.01401        7.2756477E-05
   23.14080        7.2797688E-05
   23.26759        7.3538089E-05
   23.39438        7.4874260E-05
   23.52118        7.6699078E-05
   23.64797        7.8905592E-05
   23.77476        8.1390710E-05
   23.90155        8.4058491E-05
   24.02835        8.6823013E-05
   24.15514        8.9610628E-05
   24.28193        9.2361588E-05
   24.40872        9.5030904E-05
   24.53552        9.7588782E-05
   24.66231        1.0002006E-04
   24.78910        1.0232354E-04
   24.91590        1.0451035E-04
   25.04269        1.0660228E-04
   25.16948        1.0862957E-04
   25.29627        1.1062869E-04
   25.42307        1.1263987E-04
   25.54986        1.1470484E-04
   25.67665        1.1686452E-04
   25.80344        1.1915692E-04
   25.93024        1.2161544E-04
   26.05703        1.2426722E-04
   26.18382        1.2713202E-04
   26.31061        1.3022135E-04
   26.43741        1.3353809E-04
   26.56420        1.3707619E-04
   26.69099        1.4082089E-04
   26.81779        1.4474901E-04
   26.94458        1.4882954E-04
   27.07137        1.5302451E-04
   27.19816        1.5728991E-04
   27.32495        1.6157696E-04
   27.45175        1.6583322E-04
   27.57854        1.7000413E-04
   27.70533        1.7403442E-04
   27.83213        1.7786941E-04
   27.95892        1.8145661E-04
   28.08571        1.8474730E-04
   28.21250        1.8769783E-04
   28.33930        1.9027133E-04
   28.46609        1.9243885E-04
   28.59288        1.9418082E-04
   28.71968        1.9548801E-04
   28.84647        1.9636274E-04
   28.97326        1.9681938E-04
   29.10005        1.9688469E-04
   29.22684        1.9659798E-04
   29.35364        1.9601097E-04
   29.48043        1.9518695E-04
   29.60722        1.9420007E-04
   29.73402        1.9313386E-04
   29.86081        1.9207943E-04
   29.98760        1.9113372E-04
   30.11439        1.9039708E-04
   30.24119        1.8997071E-04
   30.36798        1.8995411E-04
   30.49477        1.9044243E-04
   30.62156        1.9152390E-04
   30.74836        1.9327713E-04
   30.87515        1.9576901E-04
   31.00194        1.9905259E-04
   31.12873        2.0316544E-04
   31.25553        2.0812846E-04
   31.38232        2.1394521E-04
   31.50911        2.2060132E-04
   31.63591        2.2806507E-04
   31.76270        2.3628797E-04
   31.88949        2.4520583E-04
   32.01628        2.5474036E-04
   32.14308        2.6480114E-04
   32.26987        2.7528775E-04
   32.39666        2.8609228E-04
   32.52345        2.9710174E-04
   32.65025        3.0820069E-04
   32.77704        3.1927368E-04
   32.90383        3.3020746E-04
   33.03062        3.4089343E-04
   33.15742        3.5122960E-04
   33.28421        3.6112210E-04
   33.41100        3.7048644E-04
   33.53780        3.7924861E-04
   33.66459        3.8734582E-04
   33.79138        3.9472673E-04
   33.91817        4.0135122E-04
   34.04497        4.0719032E-04
   34.17176        4.1222543E-04
   34.29855        4.1644747E-04
   34.42534        4.1985628E-04
   34.55214        4.2245924E-04
   34.67893        4.2427002E-04
   34.80572        4.2530757E-04
   34.93251        4.2559492E-04
   35.05931        4.2515795E-04
   35.18610        4.2402462E-04
   35.31289        4.2222408E-04
   35.43969        4.1978565E-04
   35.56648        4.1673856E-04
   35.69327        4.1311095E-04
   35.82006        4.0893009E-04
   35.94686        4.0422168E-04
   36.07365        3.9901008E-04
   36.20044        3.9331813E-04
   36.32723        3.8716756E-04
   36.45403        3.8057895E-04
   36.58082        3.7357176E-04
   36.70761        3.6616466E-04
   36.83440        3.5837558E-04
   36.96120        3.5022193E-04
   37.08799        3.4172097E-04
   37.21478        3.3289002E-04
   37.34158        3.2374644E-04
   37.46837        3.1430792E-04
   37.59516        3.0459280E-04
   37.72195        2.9461991E-04
   37.84875        2.8440874E-04
   37.97554        2.7397950E-04
   38.10233        2.6335314E-04
   38.22912        2.5255137E-04
   38.35592        2.4159676E-04
   38.48271        2.3051290E-04
   38.60950        2.1932440E-04
   38.73629        2.0805701E-04
   38.86309        1.9673766E-04
   38.98988        1.8539450E-04
   39.11667        1.7405693E-04
   39.24347        1.6275566E-04
   39.37026        1.5152291E-04
   39.49705        1.4039244E-04
   39.62384        1.2939986E-04
   39.75064        1.1858278E-04
   39.87743        1.0798107E-04
   40.00422        9.7637007E-05
   40.13101        8.7595428E-05
   40.25780        7.7903809E-05
   40.38460        6.8612288E-05
   40.51139        5.9773512E-05
   40.63818        5.1442541E-05
   40.76498        4.3676475E-05
   40.89177        3.6534024E-05
   41.01856        3.0074907E-05
   41.14536        2.4358998E-05
   41.27215        1.9445350E-05
   41.39894        1.5390928E-05
   41.52573        1.2249235E-05
   41.65253        1.0068800E-05
   41.77932        8.8915212E-06
   41.90611        8.7509789E-06
   42.03290        9.6708100E-06
   42.15969        1.1663039E-05
   42.28649        1.4726505E-05
   42.41328        1.8845589E-05
   42.54007        2.3989021E-05
   42.66687        3.0109039E-05
   42.79366        3.7140857E-05
   42.92045        4.5002533E-05
   43.04725        5.3595330E-05
   43.17404        6.2804502E-05
   43.30083        7.2500581E-05
   43.42762        8.2541155E-05
   43.55442        9.2772978E-05
   43.68121        1.0303474E-04
   43.80800        1.1315990E-04
   43.93479        1.2298007E-04
   44.06158        1.3232842E-04
   44.18838        1.4104327E-04
   44.31517        1.4897177E-04
   44.44196        1.5597342E-04
   44.56876        1.6192350E-04
   44.69555        1.6671614E-04
   44.82234        1.7026703E-04
   44.94913        1.7251582E-04
   45.07593        1.7342783E-04
   45.20272        1.7299518E-04
   45.32951        1.7123744E-04
   45.45631        1.6820143E-04
   45.58310        1.6396055E-04
   45.70989        1.5861334E-04
   45.83668        1.5228144E-04
   45.96347        1.4510710E-04
   46.09027        1.3725007E-04
   46.21706        1.2888432E-04
   46.34385        1.2019412E-04
   46.47065        1.1137016E-04
   46.59744        1.0260539E-04
   46.72423        9.4090821E-05
   46.85102        8.6011401E-05
   46.97782        7.8542049E-05
   47.10461        7.1843904E-05
   47.23140        6.6060980E-05
   47.35820        6.1317151E-05
   47.48499        5.7713667E-05
   47.61178        5.5327237E-05
   47.73857        5.4208544E-05
   47.86536        5.4381442E-05
   47.99216        5.5842676E-05
   48.11895        5.8562211E-05
   48.24574        6.2484040E-05
   48.37254        6.7527675E-05
   48.49933        7.3590105E-05
   48.62612        8.0548270E-05
   48.75291        8.8261935E-05
   48.87971        9.6576972E-05
   49.00650        1.0532871E-04
   49.13329        1.1434565E-04
   49.26009        1.2345308E-04
   49.38688        1.3247682E-04
   49.51367        1.4124674E-04
   49.64046        1.4960018E-04
   49.76725        1.5738534E-04
   49.89405        1.6446412E-04
   50.02084        1.7071492E-04
   50.14763        1.7603482E-04
   50.27443        1.8034145E-04
   50.40122        1.8357424E-04
   50.52801        1.8569535E-04
   50.65480        1.8668987E-04
   50.78160        1.8656564E-04
   50.90839        1.8535275E-04
   51.03518        1.8310249E-04
   51.16198        1.7988580E-04
   51.28877        1.7579162E-04
   51.41556        1.7092467E-04
   51.54235        1.6540285E-04
   51.66914        1.5935463E-04
   51.79594        1.5291596E-04
   51.92273        1.4622725E-04
   52.04952        1.3943014E-04
   52.17632        1.3266446E-04
   52.30311        1.2606519E-04
   52.42990        1.1975976E-04
   52.55669        1.1386540E-04
   52.68349        1.0848683E-04
   52.81028        1.0371430E-04
   52.93707        9.9621946E-05
   53.06387        9.6266493E-05
   53.19066        9.3686562E-05
   53.31745        9.1902322E-05
   53.44424        9.0915732E-05
   53.57103        9.0711153E-05
   53.69783        9.1256523E-05
   53.82462        9.2504852E-05
   53.95141        9.4395917E-05
   54.07821        9.6858341E-05
   54.20500        9.9811739E-05
   54.33179        1.0316900E-04
   54.45858        1.0683855E-04
   54.58538        1.1072672E-04
   54.71217        1.1473992E-04
   54.83896        1.1878685E-04
   54.96576        1.2278039E-04
   55.09255        1.2663926E-04
   55.21934        1.3028941E-04
   55.34613        1.3366497E-04
   55.47292        1.3670915E-04
   55.59972        1.3937449E-04
   55.72651        1.4162324E-04
   55.85330        1.4342713E-04
   55.98009        1.4476727E-04
   56.10689        1.4563366E-04
   56.23368        1.4602467E-04
   56.36047        1.4594631E-04
   56.48727        1.4541144E-04
   56.61406        1.4443896E-04
   56.74085        1.4305298E-04
   56.86765        1.4128187E-04
   56.99444        1.3915761E-04
   57.12123        1.3671495E-04
   57.24802        1.3399092E-04
   57.37481        1.3102415E-04
   57.50161        1.2785444E-04
   57.62840        1.2452231E-04
   57.75519        1.2106862E-04
   57.88198        1.1753421E-04
   58.00878        1.1395952E-04
   58.13557        1.1038430E-04
   58.26236        1.0684734E-04
   58.38916        1.0338610E-04
   58.51595        1.0003635E-04
   58.64274        9.6831849E-05
   58.76954        9.3803930E-05
   58.89633        9.0980939E-05
   59.02312        8.8387729E-05
   59.14991        8.6045155E-05
   59.27670        8.3969440E-05
   59.40350        8.2171697E-05
   59.53029        8.0657483E-05
   59.65708        7.9426391E-05
   59.78387        7.8471843E-05
   59.91067        7.7781086E-05
   60.03746        7.7335266E-05
   60.16425        7.7109900E-05
   60.29105        7.7075478E-05
   60.41784        7.7198318E-05
   60.54463        7.7441677E-05
   60.67142        7.7767028E-05
   60.79822        7.8135512E-05
   60.92501        7.8509554E-05
   61.05180        7.8854435E-05
   61.17859        7.9139885E-05
   61.30539        7.9341611E-05
   61.43218        7.9442594E-05
   61.55897        7.9434132E-05
   61.68576        7.9316589E-05
   61.81256        7.9099707E-05
   61.93935        7.8802565E-05
   62.06614        7.8453028E-05
   62.19294        7.8086749E-05
   62.31973        7.7745863E-05
   62.44652        7.7477220E-05
   62.57331        7.7330362E-05
   62.70011        7.7355275E-05
   62.82690        7.7600045E-05
   62.95369        7.8108416E-05
   63.08048        7.8917583E-05
   63.20728        8.0056059E-05
   63.33407        8.1541999E-05
   63.46086        8.3381812E-05
   63.58765        8.5569365E-05
   63.71445        8.8085704E-05
   63.84124        9.0899368E-05
   63.96803        9.3967283E-05
   64.09483        9.7236174E-05
   64.22162        1.0064449E-04
   64.34841        1.0412464E-04
   64.47520        1.0760557E-04
   64.60200        1.1101557E-04
   64.72879        1.1428516E-04
   64.85558        1.1734977E-04
   64.98238        1.2015243E-04
   65.10917        1.2264602E-04
   65.23596        1.2479501E-04
   65.36275        1.2657691E-04
   65.48955        1.2798287E-04
   65.61633        1.2901786E-04
   65.74313        1.2970009E-04
   65.86992        1.3005994E-04
   65.99671        1.3013833E-04
   66.12350        1.2998472E-04
   66.25030        1.2965467E-04
   66.37709        1.2920733E-04
   66.50388        1.2870270E-04
   66.63068        1.2819898E-04
   66.75747        1.2775011E-04
   66.88426        1.2740363E-04
   67.01105        1.2719880E-04
   67.13785        1.2716535E-04
   67.26464        1.2732275E-04
   67.39143        1.2767993E-04
   67.51823        1.2823557E-04
   67.64502        1.2897882E-04
   67.77181        1.2989054E-04
   67.89861        1.3094468E-04
   68.02540        1.3210994E-04
   68.15219        1.3335155E-04
   68.27898        1.3463310E-04
   68.40578        1.3591816E-04
   68.53257        1.3717187E-04
   68.65936        1.3836208E-04
   68.78616        1.3946030E-04
   68.91295        1.4044215E-04
   69.03974        1.4128747E-04
   69.16653        1.4198005E-04
   69.29333        1.4250711E-04
   69.42011        1.4285852E-04
   69.54691        1.4302586E-04
   69.67370        1.4300148E-04
   69.80049        1.4277762E-04
   69.92728        1.4234557E-04
   70.05408        1.4169520E-04
   70.18087        1.4081446E-04
   70.30766        1.3968941E-04
   70.43446        1.3830444E-04
   70.56125        1.3664304E-04
   70.68804        1.3468854E-04
   70.81483        1.3242546E-04
   70.94163        1.2984095E-04
   71.06842        1.2692626E-04
   71.19521        1.2367837E-04
   71.32201        1.2010137E-04
   71.44880        1.1620780E-04
   71.57559        1.1201959E-04
   71.70238        1.0756873E-04
   71.82918        1.0289752E-04
   71.95597        9.8058445E-05
   72.08276        9.3113449E-05
   72.20956        8.8132918E-05
   72.33635        8.3194129E-05
   72.46314        7.8379300E-05
   72.58994        7.3773321E-05
   72.71673        6.9461144E-05
   72.84352        6.5525135E-05
   72.97031        6.2042222E-05
   73.09711        5.9081234E-05
   73.22389        5.6700384E-05
   73.35069        5.4945074E-05
   73.47748        5.3846055E-05
   73.60427        5.3418120E-05
   73.73106        5.3659282E-05
   73.85786        5.4550557E-05
   73.98465        5.6056346E-05
   74.11144        5.8125457E-05
   74.23824        6.0692670E-05
   74.36503        6.3680964E-05
   74.49182        6.7004112E-05
   74.61861        7.0569724E-05
   74.74541        7.4282507E-05
   74.87220        7.8047560E-05
   74.99899        8.1773745E-05
   75.12579        8.5376720E-05
   75.25258        8.8781802E-05
   75.37937        9.1926333E-05
   75.50616        9.4761446E-05
   75.63296        9.7253360E-05
   75.75975        9.9383949E-05
   75.88654        1.0115065E-04
   76.01334        1.0256570E-04
   76.14013        1.0365478E-04
   76.26692        1.0445504E-04
   76.39371        1.0501275E-04
   76.52051        1.0538045E-04
   76.64730        1.0561412E-04
   76.77409        1.0577010E-04
   76.90089        1.0590229E-04
   77.02767        1.0605954E-04
   77.15446        1.0628327E-04
   77.28126        1.0660580E-04
   77.40805        1.0704889E-04
   77.53484        1.0762316E-04
   77.66164        1.0832788E-04
   77.78843        1.0915151E-04
   77.91522        1.1007255E-04
   78.04202        1.1106117E-04
   78.16881        1.1208105E-04
   78.29560        1.1309153E-04
   78.42239        1.1405001E-04
   78.54919        1.1491432E-04
   78.67598        1.1564505E-04
   78.80277        1.1620764E-04
   78.92957        1.1657420E-04
   79.05636        1.1672502E-04
   79.18315        1.1664959E-04
   79.30994        1.1634725E-04
   79.43674        1.1582735E-04
   79.56353        1.1510900E-04
   79.69032        1.1422037E-04
   79.81712        1.1319760E-04
   79.94391        1.1208345E-04
   80.07070        1.1092557E-04
   80.19749        1.0977467E-04
   80.32429        1.0868255E-04
   80.45108        1.0770011E-04
   80.57787        1.0687548E-04
   80.70466        1.0625227E-04
   80.83145        1.0586812E-04
   80.95824        1.0575335E-04
   81.08504        1.0593003E-04
   81.21183        1.0641121E-04
   81.33862        1.0720066E-04
   81.46542        1.0829278E-04
   81.59221        1.0967284E-04
   81.71900        1.1131763E-04
   81.84579        1.1319619E-04
   81.97259        1.1527113E-04
   82.09938        1.1749985E-04
   82.22617        1.1983612E-04
   82.35297        1.2223166E-04
   82.47976        1.2463775E-04
   82.60655        1.2700689E-04
   82.73335        1.2929422E-04
   82.86014        1.3145898E-04
   82.98693        1.3346557E-04
   83.11372        1.3528463E-04
   83.24052        1.3689350E-04
   83.36731        1.3827674E-04
   83.49410        1.3942590E-04
   83.62090        1.4033946E-04
   83.74769        1.4102193E-04
   83.87448        1.4148305E-04
   84.00127        1.4173650E-04
   84.12807        1.4179855E-04
   84.25486        1.4168654E-04
   84.38165        1.4141732E-04
   84.50844        1.4100589E-04
   84.63523        1.4046393E-04
   84.76202        1.3979877E-04
   84.88882        1.3901248E-04
   85.01561        1.3810131E-04
   85.14240        1.3705558E-04
   85.26920        1.3585998E-04
   85.39599        1.3449417E-04
   85.52278        1.3293386E-04
   85.64957        1.3115221E-04
   85.77637        1.2912147E-04
   85.90316        1.2681507E-04
   86.02995        1.2420946E-04
   86.15675        1.2128631E-04
   86.28354        1.1803435E-04
   86.41033        1.1445122E-04
   86.53712        1.1054482E-04
   86.66392        1.0633434E-04
   86.79071        1.0185088E-04
   86.91750        9.7137381E-05
   87.04430        9.2248200E-05
   87.17109        8.7248016E-05
   87.29788        8.2210317E-05
   87.42467        7.7215365E-05
   87.55147        7.2347866E-05
   87.67826        6.7694229E-05
   87.80505        6.3339823E-05
   87.93185        5.9366030E-05
   88.05864        5.5847464E-05
   88.18543        5.2849406E-05
   88.31222        5.0425631E-05
   88.43901        4.8616617E-05
   88.56580        4.7448357E-05
   88.69260        4.6931746E-05
   88.81939        4.7062469E-05
   88.94618        4.7821602E-05
   89.07298        4.9176633E-05
   89.19977        5.1083050E-05
   89.32656        5.3486241E-05
   89.45335        5.6323745E-05
   89.58015        5.9527640E-05
   89.70694        6.3027001E-05
   89.83373        6.6750312E-05
   89.96053        7.0627691E-05
   90.08732        7.4592863E-05
   90.21411        7.8584708E-05
   90.34090        8.2548337E-05
   90.46770        8.6435881E-05
   90.59449        9.0206675E-05
   90.72128        9.3827155E-05
   90.84808        9.7270349E-05
   90.97487        1.0051522E-04
   91.10166        1.0354575E-04
   91.22845        1.0635002E-04
   91.35525        1.0891934E-04
   91.48204        1.1124727E-04
   91.60883        1.1332908E-04
   91.73563        1.1516124E-04
   91.86242        1.1674121E-04
   91.98921        1.1806758E-04
   92.11600        1.1914044E-04
   92.24279        1.1996202E-04
   92.36958        1.2053753E-04
   92.49638        1.2087598E-04
   92.62317        1.2099098E-04
   92.74996        1.2090157E-04
   92.87675        1.2063261E-04
   93.00355        1.2021498E-04
   93.13034        1.1968536E-04
   93.25713        1.1908566E-04
   93.38393        1.1846210E-04
   93.51072        1.1786378E-04
   93.63751        1.1734111E-04
   93.76431        1.1694371E-04
   93.89110        1.1671831E-04
   94.01789        1.1670638E-04
   94.14468        1.1694180E-04
   94.27148        1.1744871E-04
   94.39827        1.1823966E-04
   94.52506        1.1931411E-04
   94.65186        1.2065765E-04
   94.77865        1.2224166E-04
   94.90544        1.2402376E-04
   95.03223        1.2594885E-04
   95.15903        1.2795079E-04
   95.28582        1.2995463E-04
   95.41261        1.3187947E-04
   95.53941        1.3364144E-04
   95.66620        1.3515730E-04
   95.79299        1.3634787E-04
   95.91978        1.3714167E-04
   96.04657        1.3747830E-04
   96.17336        1.3731136E-04
   96.30016        1.3661105E-04
   96.42695        1.3536589E-04
   96.55374        1.3358374E-04
   96.68053        1.3129205E-04
   96.80733        1.2853718E-04
   96.93412        1.2538303E-04
   97.06091        1.2190882E-04
   97.18771        1.1820627E-04
   97.31450        1.1437625E-04
   97.44129        1.1052502E-04
   97.56808        1.0676023E-04
   97.69488        1.0318677E-04
   97.82167        9.9902667E-05
   97.94846        9.6995391E-05
   98.07526        9.4538453E-05
   98.20205        9.2588765E-05
   98.32884        9.1184767E-05
   98.45564        9.0345296E-05
   98.58243        9.0069378E-05
   98.70922        9.0336878E-05
   98.83601        9.1109876E-05
   98.96281        9.2334747E-05
   99.08960        9.3944822E-05
   99.21639        9.5863521E-05
   99.34319        9.8007724E-05
   99.46998        1.0029142E-04
   99.59677        1.0262923E-04
   99.72356        1.0493988E-04
   99.85035        1.0714924E-04
   99.97714        1.0919292E-04
   100.1039        1.1101823E-04
   100.2307        1.1258540E-04
   100.3575        1.1386819E-04
   100.4843        1.1485375E-04
   100.6111        1.1554186E-04
   100.7379        1.1594364E-04
   100.8647        1.1607988E-04
   100.9915        1.1597897E-04
   101.1183        1.1567473E-04
   101.2451        1.1520409E-04
   101.3719        1.1460486E-04
   101.4987        1.1391359E-04
   101.6255        1.1316375E-04
   101.7522        1.1238421E-04
   101.8790        1.1159816E-04
   102.0058        1.1082259E-04
   102.1326        1.1006810E-04
   102.2594        1.0933931E-04
   102.3862        1.0863558E-04
   102.5130        1.0795195E-04
   102.6398        1.0728041E-04
   102.7666        1.0661111E-04
   102.8934        1.0593368E-04
   103.0202        1.0523849E-04
   103.1470        1.0451765E-04
   103.2738        1.0376595E-04
   103.4006        1.0298142E-04
   103.5273        1.0216578E-04
   103.6541        1.0132450E-04
   103.7809        1.0046650E-04
   103.9077        9.9603698E-05
   104.0345        9.8750090E-05
   104.1613        9.7920820E-05
   104.2881        9.7131087E-05
   104.4149        9.6394986E-05
   104.5417        9.5724507E-05
   104.6685        9.5128627E-05
   104.7953        9.4612580E-05
   104.9221        9.4177420E-05
   105.0489        9.3819828E-05
   105.1756        9.3532100E-05
   105.3024        9.3302515E-05
   105.4292        9.3115807E-05
   105.5560        9.2953989E-05
   105.6828        9.2797352E-05
   105.8096        9.2625633E-05
   105.9364        9.2419265E-05
   106.0632        9.2160772E-05
   106.1900        9.1836060E-05
   106.3168        9.1435664E-05
   106.4436        9.0955749E-05
   106.5704        9.0399037E-05
   106.6972        8.9775211E-05
   106.8240        8.9101290E-05
   106.9507        8.8401539E-05
   107.0775        8.7707122E-05
   107.2043        8.7055458E-05
   107.3311        8.6489308E-05
   107.4579        8.6055654E-05
   107.5847        8.5804219E-05
   107.7115        8.5785898E-05
   107.8383        8.6050924E-05
   107.9651        8.6647000E-05
   108.0919        8.7617314E-05
   108.2187        8.8998735E-05
   108.3455        9.0819958E-05
   108.4723        9.3099989E-05
   108.5990        9.5846735E-05
   108.7258        9.9055986E-05
   108.8526        1.0271063E-04
   108.9794        1.0678022E-04
   109.1062        1.1122089E-04
   109.2330        1.1597564E-04
   109.3598        1.2097499E-04
   109.4866        1.2613813E-04
   109.6134        1.3137428E-04
   109.7402        1.3658481E-04
   109.8670        1.4166530E-04
   109.9938        1.4650816E-04
   110.1206        1.5100552E-04
   110.2474        1.5505186E-04
   110.3741        1.5854723E-04
   110.5009        1.6139995E-04
   110.6277        1.6352950E-04