  -4.500000        3.5612470E-18
  -4.373208        3.5611891E-18
  -4.246415        3.5610787E-18
  -4.119622        3.5609278E-18
  -3.992829        3.5607660E-18
  -3.866037        3.5601010E-18
  -3.739244        3.5553873E-18
  -3.612452        3.5358944E-18
  -3.485659        3.4865311E-18
  -3.358866        3.4154110E-18
  -3.232074        3.4150050E-18
  -3.105281        3.7216502E-18
  -2.978488        4.6796763E-18
  -2.851696        6.5141205E-18
  -2.724903        8.9358775E-18
  -2.598110        1.0804763E-17
  -2.471318        1.0171148E-17
  -2.344525        4.7972455E-18
  -2.217732       -7.2434486E-18
  -2.090940       -2.7646365E-17
  -1.964147       -5.8992298E-17
  -1.837354       -1.0590146E-16
  -1.710562       -1.7369370E-16
  -1.583769       -2.6194219E-16
  -1.456976       -3.5308894E-16
  -1.330184       -4.0158811E-16
  -1.203391       -3.3396381E-16
  -1.076598       -7.0270674E-17
 -0.9498057        4.3052321E-16
 -0.8230131        1.1137460E-15
 -0.6962205        1.7890636E-15
 -0.5694278        2.1423204E-15
 -0.4426351        1.8237975E-15
 -0.3158425        6.0874675E-16
 -0.1890498       -1.4129840E-15
 -6.2257171E-02   -3.6949945E-15
  6.4535484E-02   -5.2271674E-15
  0.1913281       -4.7254846E-15
  0.3181208       -1.0206718E-15
  0.4449134        6.4335100E-15
  0.5717061        1.7086262E-14
  0.6984987        2.9040623E-14
  0.8252914        3.9193360E-14
  0.9520841        4.3831848E-14
   1.078877        3.9609568E-14
   1.205669        2.4669184E-14
   1.332462       -4.2008027E-16
   1.459255       -3.2247713E-14
   1.586047       -6.4892028E-14
   1.712840       -9.1007896E-14
   1.839633       -1.0344418E-13
   1.966425       -9.6975786E-14
   2.093218       -6.9677581E-14
   2.220011       -2.3572346E-14
   2.346803        3.5574903E-14
   2.473596        9.9155771E-14
   2.600389        1.5693164E-13
   2.727181        1.9813562E-13
   2.853974        2.1220265E-13
   2.980767        1.8918812E-13
   3.107559        1.2027811E-13
   3.234352       -1.0218842E-15
   3.361145       -1.7654583E-13
   3.487937       -3.9995229E-13
   3.614730       -6.5270369E-13
   3.741522       -9.0089839E-13
   3.868315       -1.0947148E-12
   3.995108       -1.1720806E-12
   4.121901       -1.0673741E-12
   4.248693       -7.2461893E-13
   4.375485       -1.1306062E-13
   4.502278        7.5829067E-13
   4.629071        1.8311166E-12
   4.755864        2.9966990E-12
   4.882656        4.1050973E-12
   5.009449        4.9840050E-12
   5.136241        5.4641096E-12
   5.263034        5.4057921E-12
   5.389827        4.7212395E-12
   5.516620        3.3868969E-12
   5.643412        1.4435215E-12
   5.770205       -1.0156225E-12
   5.896997       -3.8646178E-12
   6.023790       -6.9667366E-12
   6.150583       -1.0191831E-11
   6.277375       -1.3424702E-11
   6.404168       -1.6563625E-11
   6.530961       -1.9512914E-11
   6.657753       -2.2177579E-11
   6.784546       -2.4470082E-11
   6.911339       -2.6337904E-11
   7.038131       -2.7815389E-11
   7.164924       -2.9095018E-11
   7.291717       -3.0603346E-11
   7.418509       -3.3058032E-11
   7.545302       -3.7477459E-11
   7.672095       -4.5115398E-11
   7.798887       -5.7301702E-11
   7.925680       -7.5185087E-11
   8.052472       -9.9393341E-11
   8.179265       -1.2964586E-10
   8.306058       -1.6436857E-10
   8.432851       -2.0036710E-10
   8.559643       -2.3260958E-10
   8.686436       -2.5415398E-10
   8.813229       -2.5623195E-10
   8.940022       -2.2847857E-10
   9.066813       -1.5928082E-10
   9.193606       -3.6219274E-11
   9.320399        1.5340425E-10
   9.447192        4.2192008E-10
   9.573984        7.8044254E-10
   9.700777        1.2376902E-09
   9.827570        1.7983167E-09
   9.954362        2.4606046E-09
   10.08115        3.2134411E-09
   10.20795        4.0326174E-09
   10.33474        4.8766622E-09
   10.46153        5.6826410E-09
   10.58833        6.3625429E-09
   10.71512        6.8010575E-09
   10.84191        6.8556223E-09
   10.96870        6.3595880E-09
   11.09550        5.1291797E-09
   11.22229        2.9746219E-09
   11.34908       -2.8466254E-10
   11.47587       -4.8013886E-09
   11.60267       -1.0679480E-08
   11.72946       -1.7952649E-08
   11.85625       -2.6564777E-08
   11.98304       -3.6354781E-08
   12.10984       -4.7049003E-08
   12.23663       -5.8264231E-08
   12.36342       -6.9524525E-08
   12.49022       -8.0294782E-08
   12.61701       -9.0033964E-08
   12.74380       -9.8270071E-08
   12.87059       -1.0469879E-07
   12.99739       -1.0930663E-07
   13.12418       -1.1251882E-07
   13.25097       -1.1537056E-07
   13.37776       -1.1969948E-07
   13.50456       -1.2835491E-07
   13.63135       -1.4541874E-07
   13.75814       -1.7643023E-07
   13.88493       -2.2860610E-07
   14.01173       -3.1104560E-07
   14.13852       -4.3490948E-07
   14.26531       -6.1356184E-07
   14.39211       -8.6266243E-07
   14.51890       -1.2002006E-06
   14.64569       -1.6464592E-06
   14.77248       -2.2239051E-06
   14.89928       -2.9569965E-06
   15.02607       -3.8719122E-06
   15.15286       -4.9961977E-06
   15.27965       -6.3583370E-06
   15.40645       -7.9872607E-06
   15.53324       -9.9117879E-06
   15.66003       -1.2160036E-05
   15.78682       -1.4758795E-05
   15.91362       -1.7732891E-05
   16.04041       -2.1104550E-05
   16.16720       -2.4892784E-05
   16.29399       -2.9112805E-05
   16.42079       -3.3775479E-05
   16.54758       -3.8886858E-05
   16.67437       -4.4447737E-05
   16.80116       -5.0453316E-05
   16.92796       -5.6892906E-05
   17.05475       -6.3749729E-05
   17.18154       -7.1000824E-05
   17.30834       -7.8616977E-05
   17.43513       -8.6562824E-05
   17.56192       -9.4797011E-05
   17.68871       -1.0327246E-04
   17.81551       -1.1193677E-04
   17.94230       -1.2073280E-04
   18.06909       -1.2959923E-04
   18.19588       -1.3847140E-04
   18.32268       -1.4728222E-04
   18.44947       -1.5596319E-04
   18.57626       -1.6444550E-04
   18.70305       -1.7266122E-04
   18.82985       -1.8054464E-04
   18.95664       -1.8803334E-04
   19.08343       -1.9506966E-04
   19.21023       -2.0160162E-04
   19.33702       -2.0758419E-04
   19.46381       -2.1298007E-04
   19.59060       -2.1776051E-04
   19.71740       -2.2190581E-04
   19.84419       -2.2540566E-04
   19.97098       -2.2825919E-04
   20.09777       -2.3047480E-04
   20.22457       -2.3206974E-04
   20.35136       -2.3306943E-04
   20.47815       -2.3350671E-04
   20.60494       -2.3342080E-04
   20.73174       -2.3285624E-04
   20.85853       -2.3186169E-04
   20.98532       -2.3048886E-04
   21.11212       -2.2879144E-04
   21.23891       -2.2682387E-04
   21.36570       -2.2464075E-04
   21.49249       -2.2229594E-04
   21.61929       -2.1984214E-04
   21.74608       -2.1733051E-04
   21.87287       -2.1481044E-04
   21.99966       -2.1232957E-04
   22.12646       -2.0993401E-04
   22.25325       -2.0766823E-04
   22.38004       -2.0557553E-04
   22.50683       -2.0369804E-04
   22.63363       -2.0207679E-04
   22.76042       -2.0075169E-04
   22.88721       -1.9976129E-04
   23.01401       -1.9914245E-04
   23.14080       -1.9892960E-04
   23.26759       -1.9915399E-04
   23.39438       -1.9984278E-04
   23.52118       -2.0101779E-04
   23.64797       -2.0269437E-04
   23.77476       -2.0488020E-04
   23.90155       -2.0757416E-04
   24.02835       -2.1076525E-04
   24.15514       -2.1443186E-04
   24.28193       -2.1854122E-04
   24.40872       -2.2304936E-04
   24.53552       -2.2790136E-04
   24.66231       -2.3303204E-04
   24.78910       -2.3836721E-04
   24.91590       -2.4382526E-04
   25.04269       -2.4931922E-04
   25.16948       -2.5475916E-04
   25.29627       -2.6005492E-04
   25.42307       -2.6511870E-04
   25.54986       -2.6986829E-04
   25.67665       -2.7422979E-04
   25.80344       -2.7814033E-04
   25.93024       -2.8155057E-04
   26.05703       -2.8442687E-04
   26.18382       -2.8675288E-04
   26.31061       -2.8853060E-04
   26.43741       -2.8978122E-04
   26.56420       -2.9054476E-04
   26.69099       -2.9087940E-04
   26.81779       -2.9086045E-04
   26.94458       -2.9057832E-04
   27.07137       -2.9013611E-04
   27.19816       -2.8964703E-04
   27.32495       -2.8923113E-04
   27.45175       -2.8901230E-04
   27.57854       -2.8911463E-04
   27.70533       -2.8965928E-04
   27.83213       -2.9076118E-04
   27.95892       -2.9252627E-04
   28.08571       -2.9504878E-04
   28.21250       -2.9840920E-04
   28.33930       -3.0267250E-04
   28.46609       -3.0788689E-04
   28.59288       -3.1408327E-04
   28.71968       -3.2127483E-04
   28.84647       -3.2945749E-04
   28.97326       -3.3861038E-04
   29.10005       -3.4869710E-04
   29.22684       -3.5966688E-04
   29.35364       -3.7145629E-04
   29.48043       -3.8399108E-04
   29.60722       -3.9718807E-04
   29.73402       -4.1095720E-04
   29.86081       -4.2520353E-04
   29.98760       -4.3982928E-04
   30.11439       -4.5473588E-04
   30.24119       -4.6982549E-04
   30.36798       -4.8500311E-04
   30.49477       -5.0017773E-04
   30.62156       -5.1526388E-04
   30.74836       -5.3018273E-04
   30.87515       -5.4486300E-04
   31.00194       -5.5924145E-04
   31.12873       -5.7326385E-04
   31.25553       -5.8688474E-04
   31.38232       -6.0006761E-04
   31.50911       -6.1278476E-04
   31.63591       -6.2501669E-04
   31.76270       -6.3675165E-04
   31.88949       -6.4798439E-04
   32.01628       -6.5871526E-04
   32.14308       -6.6894887E-04
   32.26987       -6.7869260E-04
   32.39666       -6.8795477E-04
   32.52345       -6.9674320E-04
   32.65025       -7.0506311E-04
   32.77704       -7.1291556E-04
   32.90383       -7.2029524E-04
   33.03062       -7.2718912E-04
   33.15742       -7.3357509E-04
   33.28421       -7.3942012E-04
   33.41100       -7.4467977E-04
   33.53780       -7.4929744E-04
   33.66459       -7.5320416E-04
   33.79138       -7.5631920E-04
   33.91817       -7.5855060E-04
   34.04497       -7.5979665E-04
   34.17176       -7.5994787E-04
   34.29855       -7.5888936E-04
   34.42534       -7.5650361E-04
   34.55214       -7.5267366E-04
   34.67893       -7.4728683E-04
   34.80572       -7.4023794E-04
   34.93251       -7.3143374E-04
   35.05931       -7.2079588E-04
   35.18610       -7.0826494E-04
   35.31289       -6.9380348E-04
   35.43969       -6.7739864E-04
   35.56648       -6.5906491E-04
   35.69327       -6.3884520E-04
   35.82006       -6.1681238E-04
   35.94686       -5.9306948E-04
   36.07365       -5.6774897E-04
   36.20044       -5.4101192E-04
   36.32723       -5.1304616E-04
   36.45403       -4.8406364E-04
   36.58082       -4.5429726E-04
   36.70761       -4.2399706E-04
   36.83440       -3.9342610E-04
   36.96120       -3.6285591E-04
   37.08799       -3.3256155E-04
   37.21478       -3.0281680E-04
   37.34158       -2.7388896E-04
   37.46837       -2.4603389E-04
   37.59516       -2.1949154E-04
   37.72195       -1.9448133E-04
   37.84875       -1.7119825E-04
   37.97554       -1.4980941E-04
   38.10233       -1.3045128E-04
   38.22912       -1.1322743E-04
   38.35592       -9.8207136E-05
   38.48271       -8.5424639E-05
   38.60950       -7.4879186E-05
   38.73629       -6.6535686E-05
   38.86309       -6.0326151E-05
   38.98988       -5.6151661E-05
   39.11667       -5.3884938E-05
   39.24347       -5.3373355E-05
   39.37026       -5.4442397E-05
   39.49705       -5.6899382E-05
   39.62384       -6.0537455E-05
   39.75064       -6.5139691E-05
   39.87743       -7.0483271E-05
   40.00422       -7.6343749E-05
   40.13101       -8.2499078E-05
   40.25780       -8.8733643E-05
   40.38460       -9.4842006E-05
   40.51139       -1.0063247E-04
   40.63818       -1.0593023E-04
   40.76498       -1.1058019E-04
   40.89177       -1.1444928E-04
   41.01856       -1.1742839E-04
   41.14536       -1.1943366E-04
   41.27215       -1.2040728E-04
   41.39894       -1.2031767E-04
   41.52573       -1.1915914E-04
   41.65253       -1.1695093E-04
   41.77932       -1.1373576E-04
   41.90611       -1.0957782E-04
   42.03290       -1.0456047E-04
   42.15969       -9.8783457E-05
   42.28649       -9.2359936E-05
   42.41328       -8.5413383E-05
   42.54007       -7.8074365E-05
   42.66687       -7.0477450E-05
   42.79366       -6.2758241E-05
   42.92045       -5.5050663E-05
   43.04725       -4.7484536E-05
   43.17404       -4.0183568E-05
   43.30083       -3.3263696E-05
   43.42762       -2.6831818E-05
   43.55442       -2.0984995E-05
   43.68121       -1.5809877E-05
   43.80800       -1.1382514E-05
   43.93479       -7.7683635E-06
   44.06158       -5.0224940E-06
   44.18838       -3.1898076E-06
   44.31517       -2.3053112E-06
   44.44196       -2.3943264E-06
   44.56876       -3.4725904E-06
   44.69555       -5.5462128E-06
   44.82234       -8.6115169E-06
   44.94913       -1.2654707E-05
   45.07593       -1.7651471E-05
   45.20272       -2.3566494E-05
   45.32951       -3.0352970E-05
   45.45631       -3.7952184E-05
   45.58310       -4.6293211E-05
   45.70989       -5.5292836E-05
   45.83668       -6.4855718E-05
   45.96347       -7.4874915E-05
   46.09027       -8.5232750E-05
   46.21706       -9.5802134E-05
   46.34385       -1.0644822E-04
   46.47065       -1.1703055E-04
   46.59744       -1.2740545E-04
   46.72423       -1.3742883E-04
   46.85102       -1.4695904E-04
   46.97782       -1.5586003E-04
   47.10461       -1.6400433E-04
   47.23140       -1.7127600E-04
   47.35820       -1.7757341E-04
   47.48499       -1.8281168E-04
   47.61178       -1.8692468E-04
   47.73857       -1.8986661E-04
   47.86536       -1.9161314E-04
   47.99216       -1.9216190E-04
   48.11895       -1.9153244E-04
   48.24574       -1.8976571E-04
   48.37254       -1.8692295E-04
   48.49933       -1.8308421E-04
   48.62612       -1.7834638E-04
   48.75291       -1.7282096E-04
   48.87971       -1.6663142E-04
   49.00650       -1.5991066E-04
   49.13329       -1.5279809E-04
   49.26009       -1.4543682E-04
   49.38688       -1.3797088E-04
   49.51367       -1.3054261E-04
   49.64046       -1.2329023E-04
   49.76725       -1.1634551E-04
   49.89405       -1.0983196E-04
   50.02084       -1.0386311E-04
   50.14763       -9.8541175E-05
   50.27443       -9.3955976E-05
   50.40122       -9.0184105E-05
   50.52801       -8.7288419E-05
   50.65480       -8.5317624E-05
   50.78160       -8.4306121E-05
   50.90839       -8.4273946E-05
   51.03518       -8.5226799E-05
   51.16198       -8.7156201E-05
   51.28877       -9.0039670E-05
   51.41556       -9.3840987E-05
   51.54235       -9.8510478E-05
   51.66914       -1.0398548E-04
   51.79594       -1.1019075E-04
   51.92273       -1.1703915E-04
   52.04952       -1.2443245E-04
   52.17632       -1.3226237E-04
   52.30311       -1.4041190E-04
   52.42990       -1.4875681E-04
   52.55669       -1.5716751E-04
   52.68349       -1.6551127E-04
   52.81028       -1.7365451E-04
   52.93707       -1.8146553E-04
   53.06387       -1.8881724E-04
   53.19066       -1.9559001E-04
   53.31745       -2.0167451E-04
   53.44424       -2.0697438E-04
   53.57103       -2.1140875E-04
   53.69783       -2.1491433E-04
   53.82462       -2.1744706E-04
   53.95141       -2.1898330E-04
   54.07821       -2.1952034E-04
   54.20500       -2.1907619E-04
   54.33179       -2.1768895E-04
   54.45858       -2.1541533E-04
   54.58538       -2.1232874E-04
   54.71217       -2.0851668E-04
   54.83896       -2.0407792E-04
   54.96576       -1.9911925E-04
   55.09255       -1.9375214E-04
   55.21934       -1.8808930E-04
   55.34613       -1.8224139E-04
   55.47292       -1.7631406E-04
   55.59972       -1.7040523E-04
   55.72651       -1.6460282E-04
   55.85330       -1.5898324E-04
   55.98009       -1.5361008E-04
   56.10689       -1.4853386E-04
   56.23368       -1.4379204E-04
   56.36047       -1.3940978E-04
   56.48727       -1.3540106E-04
   56.61406       -1.3177040E-04
   56.74085       -1.2851479E-04
   56.86765       -1.2562575E-04
   56.99444       -1.2309173E-04
   57.12123       -1.2090012E-04
   57.24802       -1.1903937E-04
   57.37481       -1.1750064E-04
   57.50161       -1.1627917E-04
   57.62840       -1.1537514E-04
   57.75519       -1.1479393E-04
   57.88198       -1.1454608E-04
   58.00878       -1.1464649E-04
   58.13557       -1.1511326E-04
   58.26236       -1.1596613E-04
   58.38916       -1.1722461E-04
   58.51595       -1.1890579E-04
   58.64274       -1.2102227E-04
   58.76954       -1.2357997E-04
   58.89633       -1.2657621E-04
   59.02312       -1.2999808E-04
   59.14991       -1.3382114E-04
   59.27670       -1.3800873E-04
   59.40350       -1.4251171E-04
   59.53029       -1.4726889E-04
   59.65708       -1.5220794E-04
   59.78387       -1.5724705E-04
   59.91067       -1.6229691E-04
   60.03746       -1.6726331E-04
   60.16425       -1.7205007E-04
   60.29105       -1.7656219E-04
   60.41784       -1.8070906E-04
   60.54463       -1.8440779E-04
   60.67142       -1.8758624E-04
   60.79822       -1.9018582E-04
   60.92501       -1.9216385E-04
   61.05180       -1.9349532E-04
   61.17859       -1.9417405E-04
   61.30539       -1.9421332E-04
   61.43218       -1.9364549E-04
   61.55897       -1.9252118E-04
   61.68576       -1.9090761E-04
   61.81256       -1.8888642E-04
   61.93935       -1.8655087E-04
   62.06614       -1.8400262E-04
   62.19294       -1.8134832E-04
   62.31973       -1.7869583E-04
   62.44652       -1.7615060E-04
   62.57331       -1.7381200E-04
   62.70011       -1.7177012E-04
   62.82690       -1.7010271E-04
   62.95369       -1.6887285E-04
   63.08048       -1.6812714E-04
   63.20728       -1.6789448E-04
   63.33407       -1.6818568E-04
   63.46086       -1.6899375E-04
   63.58765       -1.7029484E-04
   63.71445       -1.7204983E-04
   63.84124       -1.7420652E-04
   63.96803       -1.7670219E-04
   64.09483       -1.7946649E-04
   64.22162       -1.8242448E-04
   64.34841       -1.8549981E-04
   64.47520       -1.8861753E-04
   64.60200       -1.9170687E-04
   64.72879       -1.9470365E-04
   64.85558       -1.9755203E-04
   64.98238       -2.0020592E-04
   65.10917       -2.0262976E-04
   65.23596       -2.0479862E-04
   65.36275       -2.0669788E-04
   65.48955       -2.0832213E-04
   65.61633       -2.0967392E-04
   65.74313       -2.1076179E-04
   65.86992       -2.1159825E-04
   65.99671       -2.1219751E-04
   66.12350       -2.1257324E-04
   66.25030       -2.1273633E-04
   66.37709       -2.1269302E-04
   66.50388       -2.1244334E-04
   66.63068       -2.1197992E-04
   66.75747       -2.1128746E-04
   66.88426       -2.1034275E-04
   67.01105       -2.0911524E-04
   67.13785       -2.0756817E-04
   67.26464       -2.0566040E-04
   67.39143       -2.0334849E-04
   67.51823       -2.0058932E-04
   67.64502       -1.9734273E-04
   67.77181       -1.9357447E-04
   67.89861       -1.8925895E-04
   68.02540       -1.8438185E-04
   68.15219       -1.7894237E-04
   68.27898       -1.7295516E-04
   68.40578       -1.6645157E-04
   68.53257       -1.5948052E-04
   68.65936       -1.5210841E-04
   68.78616       -1.4441866E-04
   68.91295       -1.3651048E-04
   69.03974       -1.2849703E-04
   69.16653       -1.2050292E-04
   69.29333       -1.1266143E-04
   69.42011       -1.0511115E-04
   69.54691       -9.7992510E-05
   69.67370       -9.1444068E-05
   69.80049       -8.5598811E-05
   69.92728       -8.0580627E-05
   70.05408       -7.6500946E-05
   70.18087       -7.3455762E-05
   70.30766       -7.1523114E-05
   70.43446       -7.0761067E-05
   70.56125       -7.1206247E-05
   70.68804       -7.2873037E-05
   70.81483       -7.5753342E-05
   70.94163       -7.9817022E-05
   71.06842       -8.5012784E-05
   71.19521       -9.1269780E-05
   71.32201       -9.8499499E-05
   71.44880       -1.0659817E-04
   71.57559       -1.1544934E-04
   71.70238       -1.2492681E-04
   71.82918       -1.3489753E-04
   71.95597       -1.4522461E-04
   72.08276       -1.5577021E-04
   72.20956       -1.6639823E-04
   72.33635       -1.7697673E-04
   72.46314       -1.8738021E-04
   72.58994       -1.9749122E-04
   72.71673       -2.0720185E-04
   72.84352       -2.1641469E-04
   72.97031       -2.2504338E-04
   73.09711       -2.3301286E-04
   73.22389       -2.4025932E-04
   73.35069       -2.4672973E-04
   73.47748       -2.5238123E-04
   73.60427       -2.5718054E-04
   73.73106       -2.6110280E-04
   73.85786       -2.6413109E-04
   73.98465       -2.6625523E-04
   74.11144       -2.6747122E-04
   74.23824       -2.6778059E-04
   74.36503       -2.6718984E-04
   74.49182       -2.6571041E-04
   74.61861       -2.6335852E-04
   74.74541       -2.6015533E-04
   74.87220       -2.5612739E-04
   74.99899       -2.5130709E-04
   75.12579       -2.4573345E-04
   75.25258       -2.3945264E-04
   75.37937       -2.3251877E-04
   75.50616       -2.2499442E-04
   75.63296       -2.1695110E-04
   75.75975       -2.0846928E-04
   75.88654       -1.9963847E-04
   76.01334       -1.9055656E-04
   76.14013       -1.8132907E-04
   76.26692       -1.7206788E-04
   76.39371       -1.6288961E-04
   76.52051       -1.5391366E-04
   76.64730       -1.4525992E-04
   76.77409       -1.3704633E-04
   76.90089       -1.2938622E-04
   77.02767       -1.2238559E-04
   77.15446       -1.1614053E-04
   77.28126       -1.1073470E-04
   77.40805       -1.0623711E-04
   77.53484       -1.0270020E-04
   77.66164       -1.0015842E-04
   77.78843       -9.8627243E-05
   77.91522       -9.8102697E-05
   78.04202       -9.8561592E-05
   78.16881       -9.9962206E-05
   78.29560       -1.0224558E-04
   78.42239       -1.0533728E-04
   78.54919       -1.0914970E-04
   78.67598       -1.1358465E-04
   78.80277       -1.1853628E-04
   78.92957       -1.2389424E-04
   79.05636       -1.2954675E-04
   79.18315       -1.3538390E-04
   79.30994       -1.4130051E-04
   79.43674       -1.4719894E-04
   79.56353       -1.5299150E-04
   79.69032       -1.5860236E-04
   79.81712       -1.6396894E-04
   79.94391       -1.6904295E-04
   80.07070       -1.7379044E-04
   80.19749       -1.7819168E-04
   80.32429       -1.8224017E-04
   80.45108       -1.8594123E-04
   80.57787       -1.8931013E-04
   80.70466       -1.9236987E-04
   80.83145       -1.9514862E-04
   80.95824       -1.9767715E-04
   81.08504       -1.9998604E-04
   81.21183       -2.0210327E-04
   81.33862       -2.0405183E-04
   81.46542       -2.0584771E-04
   81.59221       -2.0749850E-04
   81.71900       -2.0900223E-04
   81.84579       -2.1034713E-04
   81.97259       -2.1151167E-04
   82.09938       -2.1246527E-04
   82.22617       -2.1316987E-04
   82.35297       -2.1358147E-04
   82.47976       -2.1365260E-04
   82.60655       -2.1333485E-04
   82.73335       -2.1258158E-04
   82.86014       -2.1135094E-04
   82.98693       -2.0960845E-04
   83.11372       -2.0732975E-04
   83.24052       -2.0450272E-04
   83.36731       -2.0112943E-04
   83.49410       -1.9722723E-04
   83.62090       -1.9282960E-04
   83.74769       -1.8798601E-04
   83.87448       -1.8276136E-04
   84.00127       -1.7723469E-04
   84.12807       -1.7149728E-04
   84.25486       -1.6565029E-04
   84.38165       -1.5980190E-04
   84.50844       -1.5406424E-04
   84.63523       -1.4855007E-04
   84.76202       -1.4336937E-04
   84.88882       -1.3862627E-04
   85.01561       -1.3441587E-04
   85.14240       -1.3082170E-04
   85.26920       -1.2791344E-04
   85.39599       -1.2574530E-04
   85.52278       -1.2435483E-04
   85.64957       -1.2376247E-04
   85.77637       -1.2397142E-04
   85.90316       -1.2496841E-04
   86.02995       -1.2672458E-04
   86.15675       -1.2919701E-04
   86.28354       -1.3233045E-04
   86.41033       -1.3605937E-04
   86.53712       -1.4031016E-04
   86.66392       -1.4500329E-04
   86.79071       -1.5005548E-04
   86.91750       -1.5538193E-04
   87.04430       -1.6089818E-04
   87.17109       -1.6652192E-04
   87.29788       -1.7217449E-04
   87.42467       -1.7778210E-04
   87.55147       -1.8327685E-04
   87.67826       -1.8859739E-04
   87.80505       -1.9368924E-04
   87.93185       -1.9850502E-04
   88.05864       -2.0300424E-04
   88.18543       -2.0715292E-04
   88.31222       -2.1092316E-04
   88.43901       -2.1429241E-04
   88.56580       -2.1724276E-04
   88.69260       -2.1976023E-04
   88.81939       -2.2183395E-04
   88.94618       -2.2345557E-04
   89.07298       -2.2461875E-04
   89.19977       -2.2531857E-04
   89.32656       -2.2555150E-04
   89.45335       -2.2531513E-04
   89.58015       -2.2460839E-04
   89.70694       -2.2343169E-04
   89.83373       -2.2178754E-04
   89.96053       -2.1968098E-04
   90.08732       -2.1712029E-04
   90.21411       -2.1411781E-04
   90.34090       -2.1069072E-04
   90.46770       -2.0686178E-04
   90.59449       -2.0265988E-04
   90.72128       -1.9812075E-04
   90.84808       -1.9328711E-04
   90.97487       -1.8820887E-04
   91.10166       -1.8294285E-04
   91.22845       -1.7755237E-04
   91.35525       -1.7210646E-04
   91.48204       -1.6667876E-04
   91.60883       -1.6134624E-04
   91.73563       -1.5618767E-04
   91.86242       -1.5128191E-04
   91.98921       -1.4670605E-04
   92.11600       -1.4253354E-04
   92.24279       -1.3883242E-04
   92.36958       -1.3566352E-04
   92.49638       -1.3307889E-04
   92.62317       -1.3112040E-04
   92.74996       -1.2981865E-04
   92.87675       -1.2919225E-04
   93.00355       -1.2924727E-04
   93.13034       -1.2997717E-04
   93.25713       -1.3136306E-04
   93.38393       -1.3337430E-04
   93.51072       -1.3596936E-04
   93.63751       -1.3909703E-04
   93.76431       -1.4269768E-04
   93.89110       -1.4670496E-04
   94.01789       -1.5104716E-04
   94.14468       -1.5564900E-04
   94.27148       -1.6043308E-04
   94.39827       -1.6532133E-04
   94.52506       -1.7023644E-04
   94.65186       -1.7510286E-04
   94.77865       -1.7984799E-04
   94.90544       -1.8440287E-04
   95.03223       -1.8870294E-04
   95.15903       -1.9268855E-04
   95.28582       -1.9630545E-04
   95.41261       -1.9950516E-04
   95.53941       -2.0224518E-04
   95.66620       -2.0448939E-04
   95.79299       -2.0620819E-04
   95.91978       -2.0737875E-04
   96.04657       -2.0798526E-04
   96.17336       -2.0801906E-04
   96.30016       -2.0747895E-04
   96.42695       -2.0637122E-04
   96.55374       -2.0470974E-04
   96.68053       -2.0251598E-04
   96.80733       -1.9981890E-04
   96.93412       -1.9665476E-04
   97.06091       -1.9306679E-04
   97.18771       -1.8910476E-04
   97.31450       -1.8482431E-04
   97.44129       -1.8028638E-04
   97.56808       -1.7555639E-04
   97.69488       -1.7070326E-04
   97.82167       -1.6579863E-04
   97.94846       -1.6091572E-04
   98.07526       -1.5612839E-04
   98.20205       -1.5151000E-04
   98.32884       -1.4713252E-04
   98.45564       -1.4306535E-04
   98.58243       -1.3937440E-04
   98.70922       -1.3612112E-04
   98.83601       -1.3336152E-04
   98.96281       -1.3114537E-04
   99.08960       -1.2951519E-04
   99.21639       -1.2850555E-04
   99.34319       -1.2814230E-04
   99.46998       -1.2844185E-04
   99.59677       -1.2941055E-04
   99.72356       -1.3104423E-04
   99.85035       -1.3332791E-04
   99.97714       -1.3623547E-04
   100.1039       -1.3972985E-04
   100.2307       -1.4376314E-04
   100.3575       -1.4827725E-04
   100.4843       -1.5320466E-04
   100.6111       -1.5846948E-04
   100.7379       -1.6398900E-04
   100.8647       -1.6967520E-04
   100.9915       -1.7543681E-04
   101.1183       -1.8118133E-04
   101.2451       -1.8681728E-04
   101.3719       -1.9225648E-04
   101.4987       -1.9741623E-04
   101.6255       -2.0222136E-04
   101.7522       -2.0660614E-04
   101.8790       -2.1051573E-04
   102.0058       -2.1390736E-04
   102.1326       -2.1675101E-04
   102.2594       -2.1902964E-04
   102.3862       -2.2073888E-04
   102.5130       -2.2188629E-04
   102.6398       -2.2249020E-04
   102.7666       -2.2257806E-04
   102.8934       -2.2218459E-04
   103.0202       -2.2134976E-04
   103.1470       -2.2011653E-04
   103.2738       -2.1852876E-04
   103.4006       -2.1662924E-04
   103.5273       -2.1445783E-04
   103.6541       -2.1205014E-04
   103.7809       -2.0943650E-04
   103.9077       -2.0664127E-04
   104.0345       -2.0368281E-04
   104.1613       -2.0057382E-04
   104.2881       -1.9732201E-04
   104.4149       -1.9393129E-04
   104.5417       -1.9040308E-04
   104.6685       -1.8673790E-04
   104.7953       -1.8293710E-04
   104.9221       -1.7900442E-04
   105.0489       -1.7494764E-04
   105.1756       -1.7078001E-04
   105.3024       -1.6652133E-04
   105.4292       -1.6219883E-04
   105.5560       -1.5784774E-04
   105.6828       -1.5351130E-04
   105.8096       -1.4924063E-04
   105.9364       -1.4509411E-04
   106.0632       -1.4113619E-04
   106.1900       -1.3743632E-04
   106.3168       -1.3406709E-04
   106.4436       -1.3110247E-04
   106.5704       -1.2861569E-04
   106.6972       -1.2667707E-04
   106.8240       -1.2535174E-04
   106.9507       -1.2469744E-04
   107.0775       -1.2476242E-04
   107.2043       -1.2558345E-04
   107.3311       -1.2718420E-04
   107.4579       -1.2957375E-04
   107.5847       -1.3274564E-04
   107.7115       -1.3667731E-04
   107.8383       -1.4132987E-04
   107.9651       -1.4664858E-04
   108.0919       -1.5256349E-04
   108.2187       -1.5899088E-04
   108.3455       -1.6583492E-04
   108.4723       -1.7298978E-04
   108.5990       -1.8034205E-04
   108.7258       -1.8777334E-04
   108.8526       -1.9516321E-04
   108.9794       -2.0239189E-04
   109.1062       -2.0934310E-04
   109.2330       -2.1590674E-04
   109.3598       -2.2198122E-04
   109.4866       -2.2747558E-04
   109.6134       -2.3231114E-04
   109.7402       -2.3642275E-04
   109.8670       -2.3975954E-04
   109.9938       -2.4228537E-04
   110.1206       -2.4397856E-04
   110.2474       -2.4483146E-04
   110.3741       -2.4484957E-04
   110.5009       -2.4405029E-04
   110.6277       -2.4246167E-04